  Input file(s): dmc_legacy.in.xml 
================================================================
                        QMCPACK 3.17.9

          (c) Copyright 2003-2023 QMCPACK developers

                         Please cite:
      J. Kim et al. J. Phys. Cond. Mat. 30 195901 (2018)
           https://doi.org/10.1088/1361-648X/aab9c3
                             and
       P. Kent et al. J. Chem. Phys. 152 174105 (2020)
              https://doi.org/10.1063/5.0004860

  Git branch: develop
  Last git commit: 3fe4a91c663b9d9f075018e9281c07905fdeb00c
  Last git commit date: Wed Dec 6 11:44:06 2023 -0800
  Last git commit subject: Merge pull request #4859 from PDoakORNL/consistent_precision_inputsection
================================================================
  Global options 

  Total number of MPI ranks = 3
  Number of MPI groups      = 1
  MPI group ID              = 0
  Number of ranks in group  = 3
  MPI ranks per node        = 3
  OMP 1st level threads     = 4
  OMP nested threading disabled or only 1 thread on the 2nd level

  Precision used in this calculation, see definitions in the manual:
  Base precision      = double
  Full precision      = double

  CPU only build
  Real build. QMC_COMPLEX=OFF
  Timer build option is enabled. Current timer level is coarse

=================================================
--- Memory usage report : when QMCPACK starts ---
=================================================
Available memory on node 0, free + buffers :   37357 MiB
Memory footprint by rank 0 on node 0       :      21 MiB
=================================================

  Input XML = dmc_legacy.in.xml

  Project = dmc_legacy
  date    = 2023-12-08 12:10:44 EST
  host    = LAP0132821


 Random Number
 -------------
  Offset for the random number seeds based on time: 532

  Range of prime numbers to use as seeds over processors and threads = 3851-3931


 Lattice
 -------
  Simulation cell radius   = 1.947495 bohr
  Wigner-Seitz cell radius = 2.385185 bohr

  Overwriting global supercell 
  Long-range breakup parameters:
    rc*kc = 15.000000; rc = 1.947495; kc = 7.702200; tol = 0.000300
  KContainer initialised with cutoff 7.702200
   # of K-shell  = 25
   # of K points = 608

  Lattice (bohr):      3.3731611500      3.3731611500      0.0000000000
                       0.0000000000      3.3731611500      3.3731611500
                       3.3731611500      0.0000000000      3.3731611500

  Boundary Conditions:  p  p  p 

  Volume (bohr^3) = 76.7611133056

  Reciprocal vectors without 2*pi.
    g_1 =       0.1482289098      0.1482289098     -0.1482289098
    g_2 =      -0.1482289098      0.1482289098      0.1482289098
    g_3 =       0.1482289098     -0.1482289098      0.1482289098

  Metric tensor in real-space.
    h_1 = 22.7564322877 11.3782161439 11.3782161439 
    h_2 = 11.3782161439 22.7564322877 11.3782161439 
    h_3 = 11.3782161439 11.3782161439 22.7564322877 

  Metric tensor in g-space.
    h_1 = 2.6022368383 -0.8674122794 -0.8674122794 
    h_2 = -0.8674122794 2.6022368383 -0.8674122794 
    h_3 = -0.8674122794 -0.8674122794 2.6022368383 

 Particle Set
 ------------
  Name: e   Offload : no

  All the species have the same mass 1.0000000000

  Creating Structure Factor for periodic systems 7.7022000901
  Particle set size: 8   Groups : 2


 Particle Set
 ------------
  Name: ion0   Offload : no

  All the species have the same mass 21894.7135905729

  Creating Structure Factor for periodic systems 7.7022000901
  Particle set size: 2   Groups : 1


 Many-body wavefunction
 -------------------
  Name: psi0   Tasking: no


   Single particle orbitals (SPO) collection
   -----------------------------------------
    Name: bspline   Type input: bspline

  Created SPOSet builder named 'bspline' of type bspline

     Single particle orbitals (SPO)
     ------------------------------
      Name: spo_ud   Type: spline   Builder class name: EinsplineSetBuilder

  TileMatrix = 
 [  1  0  0
    0  1  0
    0  0  1 ]
  Reading 4 orbitals from HDF5 file.
  HDF5 orbital file version 2.0.0
  Reading orbital file in ESHDF format.
  ESHDF orbital file version 2.0.0
  Lattice = 
    [  3.373161  3.373161  0.000000
       0.000000  3.373161  3.373161
       3.373161  0.000000  3.373161 ]
  SuperLattice = 
    [  3.373161  3.373161  0.000000
       0.000000  3.373161  3.373161
       3.373161  0.000000  3.373161 ]

bands=8, elecs=8, spins=1, twists=1
Atom type(0) = 6
Atom type(1) = 6
   Skip initialization of the density
TIMER  EinsplineSetBuilder::ReadOrbitalInfo 0.0013729440
TIMER  EinsplineSetBuilder::BroadcastOrbitalInfo 0.0000877380
Found 1 distinct supercell twist based on 1 primitive cell k-point
Super twist #0:  [   0.00000   0.00000   0.00000 ]
WARNING twist attribute does't exist but twistnum attribute was found. This is potentially ambiguous. Specifying twist attribute is preferred.
  Using supercell twist 0:  [   0.00000   0.00000   0.00000]
Using 1 copies of twist angle [ 0.000,  0.000,  0.000]
Using real splines.
8 complex-valued orbitals supplied by h5 can be expanded up to 8 SPOs.
Sorting the bands now:
We will read 4 distinct complex-valued orbitals from h5.
    Using real valued spline SPOs with real single precision storage (R2R).
    Running on CPU.
BandInfoGroup::selectBands bigspace has 8 distinct orbitals 
BandInfoGroup::selectBands using distinct orbitals [0,4)
  Number of distinct bands 4
  First Band index 0
  First SPO index 0
  Size of SPOs 4
  ClassName = SplineR2R
  Using real einspline table
NumDistinctOrbitals 4 numOrbs = 4
  TwistIndex = 0 TwistAngle       0.0000000000      0.0000000000      0.0000000000
   HalfG =                  0                 0                 0
B-spline mesh factor is 1.0000000000
B-spline mesh size is (40, 40, 40)
Maxmimum number of Gvecs 3695
MEMORY 2 MB allocated for the coefficients in 3D spline orbital representation
Start transforming plane waves to 3D B-Splines.
  Time to gather the table = 0.0005996680
  SplineSetReader initialize_spline_pio 0.0091613300 sec
  Time to bcast the table = 0.0005226810
Time spent in creating B-spline SPOs 0.0111942340 sec

   Single Slater determinant
   -------------------------

     Determinant
     -----------
      Name: updet   Spin group: 0   SPO name: spo_ud

      Setting delay_rank to default value 1
      Using rank-1 Sherman-Morrison Fahy update (SM1)
      Running on CPU.


     Determinant
     -----------
      Name: downdet   Spin group: 1   SPO name: spo_ud

      Setting delay_rank to default value 1
      Using rank-1 Sherman-Morrison Fahy update (SM1)
      Running on CPU.

  Added a fermionic WaveFunctionComponent SlaterDet

   Jastrow
   -------
    Name: J1   Type: One-Body   Function: bspline

    Radial function for element: C - e
     Number of parameters: 5
     Cusp: 0.0000000000
     Cutoff radius: 2.3851851232

     Name                        Value Type Recompute Use Index
     ---- ---------------------------- ---- --------- --- -----
     eC_0                -2.102462e-01    1         1  ON     0
     eC_1                -1.585937e-01    1         1  ON     1
     eC_2                -1.331248e-01    1         1  ON     2
     eC_3                -9.027557e-02    1         1  ON     3
     eC_4                -4.681674e-02    1         1  ON     4


   Jastrow
   -------
    Name: J2   Type: Two-Body   Function: bspline

    Radial function for species: u - u
     Number of parameters: 5
     Cusp: -0.25
     Cutoff radius: 2.38519

     Name                        Value Type Recompute Use Index
     ---- ---------------------------- ---- --------- --- -----
     uu_0                 2.270241e-01    1         1  ON     0
     uu_1                 1.527007e-01    1         1  ON     1
     uu_2                 9.884745e-02    1         1  ON     2
     uu_3                 5.326872e-02    1         1  ON     3
     uu_4                 2.501205e-02    1         1  ON     4

    Radial function for species: u - d
     Number of parameters: 5
     Cusp: -0.5
     Cutoff radius: 2.38519

     Name                        Value Type Recompute Use Index
     ---- ---------------------------- ---- --------- --- -----
     ud_0                 3.842085e-01    1         1  ON     0
     ud_1                 2.585947e-01    1         1  ON     1
     ud_2                 1.592793e-01    1         1  ON     2
     ud_3                 8.313450e-02    1         1  ON     3
     ud_4                 3.723334e-02    1         1  ON     4

  Adding psi0 TrialWaveFunction to the pool

 Hamiltonian and observables
 ---------------------------
  Name: h0

  QMCHamiltonian::addOperator Kinetic to H, physical Hamiltonian 

   Pseudo Potential
   ----------------
    Name: PseudoPot   Wavefunction : psi0


  Adding pseudopotential for C
   Linear grid  ri=0 rf=10 npts = 10001
    ECPComponentBuilder::buildSemiLocalAndLocal 
WARNING Nrule was not determined from qmcpack input or pseudopotential file. Setting sensible default.
    Assuming Hartree unit
 l-local setting found in pseudopotential file and used.
   Number of angular momentum channels 2
   Maximum angular momentum channel (Lmax) 1
   Creating a Linear Grid Rmax=1.7
  Using global grid with delta = 0.001
   Making L=1 a local potential with a radial cutoff of 9.999
  Quadrature Nrule: 4
    Non-local pseudopotential parameters
    Maximum angular momentum = 0
    Number of non-local channels = 1
       l(0)=0
    Cutoff radius = 1.7
    Number of spherical integration grid points = 12
    Spherical grid and weights: 
                        1                 0                 0       0.08333333333
                       -1   1.224646799e-16                 0       0.08333333333
             0.4472135955       0.894427191                 0       0.08333333333
            -0.4472135955      0.7236067977      0.5257311121       0.08333333333
             0.4472135955      0.2763932023      0.8506508084       0.08333333333
            -0.4472135955     -0.2763932023      0.8506508084       0.08333333333
             0.4472135955     -0.7236067977      0.5257311121       0.08333333333
            -0.4472135955      -0.894427191   1.095357397e-16       0.08333333333
             0.4472135955     -0.7236067977     -0.5257311121       0.08333333333
            -0.4472135955     -0.2763932023     -0.8506508084       0.08333333333
             0.4472135955      0.2763932023     -0.8506508084       0.08333333333
            -0.4472135955      0.7236067977     -0.5257311121       0.08333333333
    Maximum cutoff radius 1.7

  Creating CoulombHandler with the Esler Optimized Breakup. 
  KContainer initialised with cutoff 44.35276521
   # of K-shell  = 759
   # of K points = 113394

  NUMBER OF OPT_BREAK KVECS = 37906580313
 finding kc:  7.70220009 , 7.70220009
  LRBreakp parameter Kc =7.70220009
    Continuum approximation in k = [44.35276521,3080.880036)

   LR Breakup chi^2 = 1.13641e-15
   Constant of PBCAB 1.2787
  Rcut                1.9475
  Maximum K shell     24
  Number of k vectors 608
    CoulombPBCAB::add 
 Setting a linear grid=[0,1.9475) number of grid =1948
    Creating the short-range pseudopotential for species 0
  QMCHamiltonian::addOperator LocalECP to H, physical Hamiltonian 

  Using NonLocalECP potential 
    Maximum grid on a sphere for NonLocalECPotential: 12
    Using batched ratio computing in NonLocalECP
  QMCHamiltonian::addOperator NonLocalECP to H, physical Hamiltonian 

   Coulomb Potential
   -----------------
    Name: ElecElec   Type: AA   PBC: yes

  Clone CoulombHandler. 
   PBCAA self-interaction term -6.2993
   PBCAA total constant -6.9387
  Maximum K shell 24
  Number of k vectors 608
  Fixed Coulomb potential for e
    e-e Madelung Const. =-0.33980456
    Vtot     =0
  QMCHamiltonian::addOperator ElecElec to H, physical Hamiltonian 
QMCHamiltonian::addOperatorType added type coulomb named ElecElec

   Coulomb Potential
   -----------------
    Name: IonIon   Type: AA   PBC: yes

  Clone CoulombHandler. 
   PBCAA self-interaction term -25.197214
   PBCAA total constant -25.836584
Checking ion-ion Ewald energy against reference...
  Check passed.
  Maximum K shell 24
  Number of k vectors 608
  Fixed Coulomb potential for ion0
    e-e Madelung Const. =-0.33980456
    Vtot     =-12.775667
  QMCHamiltonian::addOperator IonIon to H, physical Hamiltonian 
QMCHamiltonian::addOperatorType added type coulomb named IonIon

  QMCHamiltonian::add2WalkerProperty added
    5 to P::PropertyList 
    0 to P::Collectables 
    starting Index of the observables in P::PropertyList = 9
ParticleSetPool::randomize 1 ParticleSet.
<init source="ion0" target="e">
</init>
  Initialization Execution time = 0.2438 secs
=========================================================
 Summary of QMC systems 
=========================================================
ParticleSetPool has: 

  ParticleSet 'e' contains 8 particles :  u(4) d(4)

    u  2.9529344616e+00  7.3234423664e-01  2.5654066180e+00
    u  5.9598862486e-01  3.7009389489e-01  9.3445920327e-01
    u  1.6069986221e+00  5.7814833000e-01  1.3254288201e+00
    u  1.9689753483e+00  4.1783873143e+00  4.3464020330e+00
    d  2.4896905115e+00  3.2082019862e+00  7.4676237172e-01
    d  3.6132971034e+00  2.8527252383e+00  5.7280555765e+00
    d  2.3413836490e+00  1.7678333447e+00  7.2220676055e-01
    d  1.8555159497e+00  9.3235072836e-01  2.5629276039e+00

  Distance table for dissimilar particles (A-B):
    source: ion0  target: e
    Using structure-of-arrays (SoA) data layout
    Distance computations use general periodic cell in 3D with corner image checks.

  Distance table for similar particles (A-A):
    source/target: e
    Using structure-of-arrays (SoA) data layout
    Distance computations use general periodic cell in 3D with corner image checks.


  ParticleSet 'ion0' contains 2 particles :  C(2)

    C  0.0000000000e+00  0.0000000000e+00  0.0000000000e+00
    C  1.6865805800e+00  1.6865805800e+00  1.6865805800e+00

  Distance table for similar particles (A-A):
    source/target: ion0
    Using structure-of-arrays (SoA) data layout
    Distance computations use general periodic cell in 3D with corner image checks.


  Hamiltonian h0
  Kinetic         Kinetic energy
  LocalECP        CoulombPBCAB potential source: ion0
  NonLocalECP     NonLocalECPotential: ion0
  ElecElec        CoulombPBCAA potential: e_e
  IonIon          CoulombPBCAA potential: ion0_ion0


=========================================================
  Start VMC
  File Root dmc_legacy.s000 append = no 
=========================================================
Resetting walkers
  Adding 4 walkers to 0 existing sets
  Total number of walkers: 1.2331878520e-320
  Total weight: 4.6573008939e-310
  Resetting Properties of the walkers 1 x 14

<vmc function="put">
  qmc_counter=0  my_counter=0
  time step      = 3.0000000000e-01
  blocks         = 100
  steps          = 5
  substeps       = 3
  current        = 0
  target samples = 1.0240000000e+03
  walkers/mpi    = 4

  stepsbetweensamples = 5
<parameter name="blocks">100</parameter>
<parameter name="blocks_between_recompute">10</parameter>
<parameter name="check_properties">100</parameter>
<parameter name="checkproperties">100</parameter>
<parameter name="current">0</parameter>
<parameter name="dmcwalkersperthread">8.6000000000e+01</parameter>
<parameter name="max_seconds">360000</parameter>
<parameter name="maxcpusecs">360000</parameter>
<parameter name="record_configs">0</parameter>
<parameter name="record_walkers">5</parameter>
<parameter name="recordconfigs">0</parameter>
<parameter name="recordwalkers">5</parameter>
<parameter name="samples">1.0240000000e+03</parameter>
<parameter name="samplesperthread">8.6000000000e+01</parameter>
<parameter name="spinmass">1.0000000000e+00</parameter>
<parameter name="steps">5</parameter>
<parameter name="stepsbetweensamples">5</parameter>
<parameter name="sub_steps">3</parameter>
<parameter name="substeps">3</parameter>
<parameter name="tau">3.0000000000e-01</parameter>
<parameter name="time_step">3.0000000000e-01</parameter>
<parameter name="timestep">3.0000000000e-01</parameter>
<parameter name="use_drift">yes</parameter>
<parameter name="usedrift">yes</parameter>
<parameter name="walkers">4</parameter>
<parameter name="warmup_steps">50</parameter>
<parameter name="warmupsteps">50</parameter>
  DumpConfig==false Nothing (configurations, state) will be saved.
  Walker Samples are dumped every 5 steps.
</vmc>
  Set drift_modifier UNR parameter a = 1.0000000000e+00
  Adding a default LocalEnergyEstimator for the MainEstimator 
  CloneManager::makeClones makes 4 clones for W/Psi/H.
  Cloning methods for both Psi and H are used
=========================================================
--- Memory usage report : Memory Usage before cloning ---
=========================================================
Available memory on node 0, free + buffers :   37305 MiB
Memory footprint by rank 0 on node 0       :      53 MiB
=========================================================
========================================================
--- Memory usage report : Memory Usage after cloning ---
========================================================
Available memory on node 0, free + buffers :   37305 MiB
Memory footprint by rank 0 on node 0       :      53 MiB
========================================================
  Initial partition of walkers 0 1 2 3 4 

  Using Particle by Particle moves
  Walker moves with drift
  Total Sample Size   =1032
  Walker distribution on root = 0 1 2 3 4 
  Using Locality Approximation
========================================================================
--- Memory usage report : Memory Usage after the buffer registration ---
========================================================================
Available memory on node 0, free + buffers :   37303 MiB
Memory footprint by rank 0 on node 0       :      53 MiB
========================================================================
  Anonymous Buffer size per walker : 18896 Bytes.
MEMORY increase 0 MB VMC::resetRun
====================================================
  SimpleFixedNodeBranch::finalize after a VMC block
    QMC counter        = 0
    time step          = 0.3
    reference energy   = -10.485
    reference variance = 0.380706
====================================================
  QMC Execution time = 2.6827e-01 secs
BRANCH resetRun
 SimpleFixedNodeBranch::resetRun detected changes in <parameter>'s 
 BranchMode : 0000001100 0000001100
 iParam (old):                 50                 1                 0              1024                12                12                 1                 0
 iParam (new):                 20                 1                 0              1024                12                12                 1                 0
 vParam (old):   3.0000000000e-01  3.0000000000e-01 -1.0485033759e+01 -1.0485033759e+01  1.0000000000e+00  1.0000000000e+00  1.0000000000e+00  1.0000000000e+00  3.8070570736e-01 -1.0485033759e+01  1.0000000000e+00  1.0000000000e+00  1.0000000000e+01  1.0000000000e+00  1.0000000000e+00  1.0000000000e+00  1.0000000000e+00
 vParam (new):   2.0000000000e-02  3.0000000000e-01 -1.0485033759e+01 -1.0485033759e+01  1.0000000000e+00  1.0000000000e+00  1.0000000000e+00  1.0000000000e+00  3.8070570736e-01 -1.0485033759e+01  1.0000000000e+00  1.0000000000e+00  1.0000000000e+01  1.0000000000e+00  1.0000000000e+00  1.0000000000e+00  1.0000000000e+00

=========================================================
  Start DMC
  File Root dmc_legacy.s001 append = no 
=========================================================
Using existing walkers 
  Resetting Properties of the walkers 1 x 14
  Set drift_modifier UNR parameter a = 1.0000000000e+00
  Cannot make clones again. Use existing 4 clones
  Total number of walkers: 1.2331878520e-320
  Total weight: 4.6573008939e-310
  Creating WalkerController: target  number of walkers = 1024
  Using WalkerControlMPI for dynamic population control.
  START ALL OVER 
  WalkerControlBase parameters 
    maxCopy = 2
    Max Walkers per MPI rank 683
    Min Walkers per MPI rank 69
    Using non-blocking send/recv
  QMC counter      = 1
  time step        = 2.0000000000e-02
  effective time step = 2.0000000000e-02
  trial energy     = -1.0485033759e+01
  reference energy = -1.0485033759e+01
  Feedback = 1.0000000000e+00
  reference variance = 3.8070570736e-01
  target walkers = 1024
  branching cutoff scheme classic
  branch cutoff = 5.0000000000e+01 7.5000000000e+01
  Max and minimum walkers per node= 683 69
  QMC Status (BranchMode) = 0000001101
Using DMCUpdatePbyPWithRejectionFast
  Initial partition of walkers on a node: 0 86 172 258 344 
  Updates by particle-by-particle moves
  DMC moves are rejected when a node crossing is detected
  Using Non-local T-moves v0, M. Casula, PRB 74, 161102(R) (2006)
========================================================================
--- Memory usage report : Memory Usage after the buffer registration ---
========================================================================
Available memory on node 0, free + buffers :   37299 MiB
Memory footprint by rank 0 on node 0       :      53 MiB
========================================================================
SimpleFixedNodeBranch::checkParameters 
  Average Energy of a population  = -10.485
  Energy Variance = 0.380706

  Fluctuating population
  Persistent walkers are killed after 1 MC sweeps
  BranchInterval = 1
  Steps per block = 5
  Number of blocks = 20

  DMC Engine Initialization = 3.1879322000e-02 secs

 Warmup is completed after 20

  TauEff     = 1.9558187123e-02
 TauEff/Tau = 9.7790935615e-01
  Etrial     = -1.0407933410e+01
 Running average of energy = -1.0506787486e+01
                  Variance = 3.9428216824e-01
branch cutoff = 1.0000000000e+01 1.5000000000e+01
====================================================
  SimpleFixedNodeBranch::finalize after a DMC block
    QMC counter                   = 1
    time step                     = 0.02
    effective time step           = 0.0195645
    trial energy                  = -10.5147
    reference energy              = -10.5147
    reference variance            = 0.394282
    target walkers                = 1024
    branch cutoff                 = 10 15
    Max and minimum walkers per node= 683 69
    Feedback                      = 1
    QMC Status (BranchMode)       = 0000001111
====================================================
  QMC Execution time = 3.2911e+00 secs
BRANCH resetRun
 SimpleFixedNodeBranch::resetRun detected changes in <parameter>'s 
 BranchMode : 0000001111 0000001111
  WalkerControlBase parameters 
    maxCopy = 2
    Max Walkers per MPI rank 683
    Min Walkers per MPI rank 69
    Using non-blocking send/recv
 iParam (old):                  0                 1                 1              1024               683                69                 1                 0
 iParam (new):                 20                 1                 1              1024               683                69                 1                 0
 vParam (old):   2.0000000000e-02  1.9564531510e-02 -1.0514653585e+01 -1.0514653585e+01 -1.0542706796e+01  1.5000000000e+01  1.0000000000e+01  2.0000000000e-01  3.9428216824e-01 -8.5171499357e+02  8.1000000000e+01  1.0000000000e+00  1.0000000000e+01  1.0000000000e+00  1.0000000000e+00  1.0000000000e+00  1.0000000000e+00
 vParam (new):   1.0000000000e-02  1.9564531510e-02 -1.0514653585e+01 -1.0514653585e+01 -1.0542706796e+01  1.5000000000e+01  1.0000000000e+01  2.0000000000e-01  3.9428216824e-01 -8.5171499357e+02  8.1000000000e+01  1.0000000000e+00  1.0000000000e+01  1.0000000000e+00  1.0000000000e+00  1.0000000000e+00  1.0000000000e+00

 Using branching cutoff scheme classic

=========================================================
  Start DMC
  File Root dmc_legacy.s002 append = no 
=========================================================
Using existing walkers 
  Resetting Properties of the walkers 1 x 14
  Set drift_modifier UNR parameter a = 1.0000000000e+00
  Cannot make clones again. Use existing 4 clones
  Total number of walkers: 1.0250000000e+03
  Total weight: 1.0255961394e+03
  WalkerControlBase parameters 
    maxCopy = 2
    Max Walkers per MPI rank 683
    Min Walkers per MPI rank 69
    Using non-blocking send/recv
  QMC counter      = 2
  time step        = 1.0000000000e-02
  effective time step = 1.9564531510e-02
  trial energy     = -1.0514653585e+01
  reference energy = -1.0514653585e+01
  Feedback = 1.0000000000e+00
  reference variance = 3.9428216824e-01
  target walkers = 1024
  branching cutoff scheme classic
  branch cutoff = 1.0000000000e+01 1.5000000000e+01
  Max and minimum walkers per node= 683 69
  QMC Status (BranchMode) = 0000001101
Using DMCUpdatePbyPWithRejectionFast
  Initial partition of walkers on a node: 0 85 170 255 341 
  Updates by particle-by-particle moves
  DMC moves are rejected when a node crossing is detected
  Using Non-local T-moves v0, M. Casula, PRB 74, 161102(R) (2006)
========================================================================
--- Memory usage report : Memory Usage after the buffer registration ---
========================================================================
Available memory on node 0, free + buffers :   37314 MiB
Memory footprint by rank 0 on node 0       :      55 MiB
========================================================================
SimpleFixedNodeBranch::checkParameters 
  Average Energy of a population  = -10.5137
  Energy Variance = 0.385638

  Fluctuating population
  Persistent walkers are killed after 1 MC sweeps
  BranchInterval = 1
  Steps per block = 10
  Number of blocks = 200

  DMC Engine Initialization = 2.9859405000e-02 secs

 Warmup is completed after 20

  TauEff     = 9.9138403847e-03
 TauEff/Tau = 9.9138403847e-01
  Etrial     = -1.0610730192e+01
 Running average of energy = -1.0528114992e+01
                  Variance = 3.9112983149e-01
branch cutoff = 1.0000000000e+01 1.5000000000e+01
====================================================
  SimpleFixedNodeBranch::finalize after a DMC block
    QMC counter                   = 2
    time step                     = 0.01
    effective time step           = 0.00991063
    trial energy                  = -10.5303
    reference energy              = -10.5264
    reference variance            = 0.39113
    target walkers                = 1024
    branch cutoff                 = 10 15
    Max and minimum walkers per node= 683 69
    Feedback                      = 1
    QMC Status (BranchMode)       = 0000001111
====================================================
  QMC Execution time = 7.1342e+01 secs
  Total Execution time = 7.4902e+01 secs

=========================================================
  A new xml input file : dmc_legacy.s002.cont.xml

Use --enable-timers=<value> command line option to increase or decrease level of timing information
Stack timer profile
Timer      Inclusive_time  Exclusive_time  Calls       Time_per_call
Total        75.1456     0.0001              1      75.145565641
  DMC        74.6331    74.6331              2      37.316562889
  Startup     0.2438     0.2438              1       0.243781975
  VMC         0.2686     0.2686              1       0.268576956

QMCPACK execution completed successfully
