  Input file(s): opt_emin_legacy.in.xml 
================================================================
                        QMCPACK 3.17.9

          (c) Copyright 2003-2023 QMCPACK developers

                         Please cite:
      J. Kim et al. J. Phys. Cond. Mat. 30 195901 (2018)
           https://doi.org/10.1088/1361-648X/aab9c3
                             and
       P. Kent et al. J. Chem. Phys. 152 174105 (2020)
              https://doi.org/10.1063/5.0004860

  Git branch: develop
  Last git commit: 3fe4a91c663b9d9f075018e9281c07905fdeb00c
  Last git commit date: Wed Dec 6 11:44:06 2023 -0800
  Last git commit subject: Merge pull request #4859 from PDoakORNL/consistent_precision_inputsection
================================================================
  Global options 

  Total number of MPI ranks = 3
  Number of MPI groups      = 1
  MPI group ID              = 0
  Number of ranks in group  = 3
  MPI ranks per node        = 3
  OMP 1st level threads     = 4
  OMP nested threading disabled or only 1 thread on the 2nd level

  Precision used in this calculation, see definitions in the manual:
  Base precision      = double
  Full precision      = double

  CPU only build
  Real build. QMC_COMPLEX=OFF
  Timer build option is enabled. Current timer level is coarse

=================================================
--- Memory usage report : when QMCPACK starts ---
=================================================
Available memory on node 0, free + buffers :   55267 MiB
Memory footprint by rank 0 on node 0       :      21 MiB
=================================================

  Input XML = opt_emin_legacy.in.xml

  Project = opt_emin_legacy
  date    = 2023-12-11 20:25:06 EST
  host    = LAP0132821


 Random Number
 -------------
  Offset for the random number seeds based on time: 626

  Range of prime numbers to use as seeds over processors and threads = 4649-4751


 Lattice
 -------
  Simulation cell radius   = 1.947495 bohr
  Wigner-Seitz cell radius = 2.385185 bohr

  Overwriting global supercell 
  Long-range breakup parameters:
    rc*kc = 15.000000; rc = 1.947495; kc = 7.702200; tol = 0.000300
  KContainer initialised with cutoff 7.702200
   # of K-shell  = 25
   # of K points = 608

  Lattice (bohr):      3.3731611500      3.3731611500      0.0000000000
                       0.0000000000      3.3731611500      3.3731611500
                       3.3731611500      0.0000000000      3.3731611500

  Boundary Conditions:  p  p  p 

  Volume (bohr^3) = 76.7611133056

  Reciprocal vectors without 2*pi.
    g_1 =       0.1482289098      0.1482289098     -0.1482289098
    g_2 =      -0.1482289098      0.1482289098      0.1482289098
    g_3 =       0.1482289098     -0.1482289098      0.1482289098

  Metric tensor in real-space.
    h_1 = 22.7564322877 11.3782161439 11.3782161439 
    h_2 = 11.3782161439 22.7564322877 11.3782161439 
    h_3 = 11.3782161439 11.3782161439 22.7564322877 

  Metric tensor in g-space.
    h_1 = 2.6022368383 -0.8674122794 -0.8674122794 
    h_2 = -0.8674122794 2.6022368383 -0.8674122794 
    h_3 = -0.8674122794 -0.8674122794 2.6022368383 

 Particle Set
 ------------
  Name: e   Offload : no

  All the species have the same mass 1.0000000000

  Creating Structure Factor for periodic systems 7.7022000901
  Particle set size: 8   Groups : 2


 Particle Set
 ------------
  Name: ion0   Offload : no

  All the species have the same mass 21894.7135905729

  Creating Structure Factor for periodic systems 7.7022000901
  Particle set size: 2   Groups : 1


 Many-body wavefunction
 -------------------
  Name: psi0   Tasking: no


   Single particle orbitals (SPO) collection
   -----------------------------------------
    Name: bspline   Type input: bspline

  Created SPOSet builder named 'bspline' of type bspline

     Single particle orbitals (SPO)
     ------------------------------
      Name: spo_ud   Type: spline   Builder class name: EinsplineSetBuilder

  TileMatrix = 
 [  1  0  0
    0  1  0
    0  0  1 ]
  Reading 4 orbitals from HDF5 file.
  HDF5 orbital file version 2.0.0
  Reading orbital file in ESHDF format.
  ESHDF orbital file version 2.0.0
  Lattice = 
    [  3.373161  3.373161  0.000000
       0.000000  3.373161  3.373161
       3.373161  0.000000  3.373161 ]
  SuperLattice = 
    [  3.373161  3.373161  0.000000
       0.000000  3.373161  3.373161
       3.373161  0.000000  3.373161 ]

bands=8, elecs=8, spins=1, twists=1
Atom type(0) = 6
Atom type(1) = 6
   Skip initialization of the density
TIMER  EinsplineSetBuilder::ReadOrbitalInfo 0.0009655630
TIMER  EinsplineSetBuilder::BroadcastOrbitalInfo 0.0000416670
Found 1 distinct supercell twist based on 1 primitive cell k-point
Super twist #0:  [   0.00000   0.00000   0.00000 ]
WARNING twist attribute does't exist but twistnum attribute was found. This is potentially ambiguous. Specifying twist attribute is preferred.
  Using supercell twist 0:  [   0.00000   0.00000   0.00000]
Using 1 copies of twist angle [ 0.000,  0.000,  0.000]
Using real splines.
8 complex-valued orbitals supplied by h5 can be expanded up to 8 SPOs.
Sorting the bands now:
We will read 4 distinct complex-valued orbitals from h5.
    Using real valued spline SPOs with real single precision storage (R2R).
    Running on CPU.
BandInfoGroup::selectBands bigspace has 8 distinct orbitals 
BandInfoGroup::selectBands using distinct orbitals [0,4)
  Number of distinct bands 4
  First Band index 0
  First SPO index 0
  Size of SPOs 4
  ClassName = SplineR2R
  Using real einspline table
NumDistinctOrbitals 4 numOrbs = 4
  TwistIndex = 0 TwistAngle       0.0000000000      0.0000000000      0.0000000000
   HalfG =                  0                 0                 0
B-spline mesh factor is 1.0000000000
B-spline mesh size is (40, 40, 40)
Maxmimum number of Gvecs 3695
MEMORY 2 MB allocated for the coefficients in 3D spline orbital representation
Start transforming plane waves to 3D B-Splines.
  Time to gather the table = 0.0006785300
  SplineSetReader initialize_spline_pio 0.0087060340 sec
  Time to bcast the table = 0.0005623910
Time spent in creating B-spline SPOs 0.0105904320 sec

   Single Slater determinant
   -------------------------

     Determinant
     -----------
      Name: updet   Spin group: 0   SPO name: spo_ud

      Setting delay_rank to default value 1
      Using rank-1 Sherman-Morrison Fahy update (SM1)
      Running on CPU.


     Determinant
     -----------
      Name: downdet   Spin group: 1   SPO name: spo_ud

      Setting delay_rank to default value 1
      Using rank-1 Sherman-Morrison Fahy update (SM1)
      Running on CPU.

  Added a fermionic WaveFunctionComponent SlaterDet

   Jastrow
   -------
    Name: J1   Type: One-Body   Function: bspline

    Radial function for element: C - e
     Number of parameters: 5
     Cusp: 0.0000000000
     Cutoff radius: 2.3851851232

     Name                        Value Type Recompute Use Index
     ---- ---------------------------- ---- --------- --- -----
     eC_0                 0.000000e+00    1         1  ON     0
     eC_1                 0.000000e+00    1         1  ON     1
     eC_2                 0.000000e+00    1         1  ON     2
     eC_3                 0.000000e+00    1         1  ON     3
     eC_4                 0.000000e+00    1         1  ON     4


   Jastrow
   -------
    Name: J2   Type: Two-Body   Function: bspline

    Radial function for species: u - u
     Number of parameters: 5
     Cusp: -0.25
     Cutoff radius: 2.38519

     Name                        Value Type Recompute Use Index
     ---- ---------------------------- ---- --------- --- -----
     uu_0                 0.000000e+00    1         1  ON     0
     uu_1                 0.000000e+00    1         1  ON     1
     uu_2                 0.000000e+00    1         1  ON     2
     uu_3                 0.000000e+00    1         1  ON     3
     uu_4                 0.000000e+00    1         1  ON     4

    Radial function for species: u - d
     Number of parameters: 5
     Cusp: -0.5
     Cutoff radius: 2.38519

     Name                        Value Type Recompute Use Index
     ---- ---------------------------- ---- --------- --- -----
     ud_0                 0.000000e+00    1         1  ON     0
     ud_1                 0.000000e+00    1         1  ON     1
     ud_2                 0.000000e+00    1         1  ON     2
     ud_3                 0.000000e+00    1         1  ON     3
     ud_4                 0.000000e+00    1         1  ON     4

  Adding psi0 TrialWaveFunction to the pool

 Hamiltonian and observables
 ---------------------------
  Name: h0

  QMCHamiltonian::addOperator Kinetic to H, physical Hamiltonian 

   Pseudo Potential
   ----------------
    Name: PseudoPot   Wavefunction : psi0


  Adding pseudopotential for C
   Linear grid  ri=0 rf=10 npts = 10001
    ECPComponentBuilder::buildSemiLocalAndLocal 
WARNING Nrule was not determined from qmcpack input or pseudopotential file. Setting sensible default.
    Assuming Hartree unit
 l-local setting found in pseudopotential file and used.
   Number of angular momentum channels 2
   Maximum angular momentum channel (Lmax) 1
   Creating a Linear Grid Rmax=1.7
  Using global grid with delta = 0.001
   Making L=1 a local potential with a radial cutoff of 9.999
  Quadrature Nrule: 4
    Non-local pseudopotential parameters
    Maximum angular momentum = 0
    Number of non-local channels = 1
       l(0)=0
    Cutoff radius = 1.7
    Number of spherical integration grid points = 12
    Spherical grid and weights: 
                        1                 0                 0       0.08333333333
                       -1   1.224646799e-16                 0       0.08333333333
             0.4472135955       0.894427191                 0       0.08333333333
            -0.4472135955      0.7236067977      0.5257311121       0.08333333333
             0.4472135955      0.2763932023      0.8506508084       0.08333333333
            -0.4472135955     -0.2763932023      0.8506508084       0.08333333333
             0.4472135955     -0.7236067977      0.5257311121       0.08333333333
            -0.4472135955      -0.894427191   1.095357397e-16       0.08333333333
             0.4472135955     -0.7236067977     -0.5257311121       0.08333333333
            -0.4472135955     -0.2763932023     -0.8506508084       0.08333333333
             0.4472135955      0.2763932023     -0.8506508084       0.08333333333
            -0.4472135955      0.7236067977     -0.5257311121       0.08333333333
    Maximum cutoff radius 1.7

  Creating CoulombHandler with the Esler Optimized Breakup. 
  KContainer initialised with cutoff 44.35276521
   # of K-shell  = 759
   # of K points = 113394

  NUMBER OF OPT_BREAK KVECS = 37906580313
 finding kc:  7.70220009 , 7.70220009
  LRBreakp parameter Kc =7.70220009
    Continuum approximation in k = [44.35276521,3080.880036)

   LR Breakup chi^2 = 1.13641e-15
   Constant of PBCAB 1.2787
  Rcut                1.9475
  Maximum K shell     24
  Number of k vectors 608
    CoulombPBCAB::add 
 Setting a linear grid=[0,1.9475) number of grid =1948
    Creating the short-range pseudopotential for species 0
  QMCHamiltonian::addOperator LocalECP to H, physical Hamiltonian 

  Using NonLocalECP potential 
    Maximum grid on a sphere for NonLocalECPotential: 12
    Using batched ratio computing in NonLocalECP
  QMCHamiltonian::addOperator NonLocalECP to H, physical Hamiltonian 

   Coulomb Potential
   -----------------
    Name: ElecElec   Type: AA   PBC: yes

  Clone CoulombHandler. 
   PBCAA self-interaction term -6.2993
   PBCAA total constant -6.9387
  Maximum K shell 24
  Number of k vectors 608
  Fixed Coulomb potential for e
    e-e Madelung Const. =-0.33980456
    Vtot     =0
  QMCHamiltonian::addOperator ElecElec to H, physical Hamiltonian 
QMCHamiltonian::addOperatorType added type coulomb named ElecElec

   Coulomb Potential
   -----------------
    Name: IonIon   Type: AA   PBC: yes

  Clone CoulombHandler. 
   PBCAA self-interaction term -25.197214
   PBCAA total constant -25.836584
Checking ion-ion Ewald energy against reference...
  Check passed.
  Maximum K shell 24
  Number of k vectors 608
  Fixed Coulomb potential for ion0
    e-e Madelung Const. =-0.33980456
    Vtot     =-12.775667
  QMCHamiltonian::addOperator IonIon to H, physical Hamiltonian 
QMCHamiltonian::addOperatorType added type coulomb named IonIon

  QMCHamiltonian::add2WalkerProperty added
    5 to P::PropertyList 
    0 to P::Collectables 
    starting Index of the observables in P::PropertyList = 9
ParticleSetPool::randomize 1 ParticleSet.
<init source="ion0" target="e">
</init>
  Initialization Execution time = 0.2479 secs
=========================================================
 Summary of QMC systems 
=========================================================
ParticleSetPool has: 

  ParticleSet 'e' contains 8 particles :  u(4) d(4)

    u  2.7279594625e+00  3.7734767598e-01  2.4749910946e+00
    u  3.8284787477e+00  5.6717582080e+00  3.3149904356e+00
    u  2.4190217160e+00  2.1975634256e+00  2.4401138894e+00
    u  2.6103197430e+00  2.1929120743e+00  2.1922685384e+00
    d  5.8304685524e+00  6.0740734442e+00  6.4730471210e+00
    d  5.6855953311e+00  3.0319392345e+00  3.7250302116e+00
    d  5.4556122519e-01  1.4887492469e+00  1.8425406075e+00
    d  9.0356310681e-01  1.2171510780e+00  9.5726205296e-01

  Distance table for dissimilar particles (A-B):
    source: ion0  target: e
    Using structure-of-arrays (SoA) data layout
    Distance computations use general periodic cell in 3D with corner image checks.

  Distance table for similar particles (A-A):
    source/target: e
    Using structure-of-arrays (SoA) data layout
    Distance computations use general periodic cell in 3D with corner image checks.


  ParticleSet 'ion0' contains 2 particles :  C(2)

    C  0.0000000000e+00  0.0000000000e+00  0.0000000000e+00
    C  1.6865805800e+00  1.6865805800e+00  1.6865805800e+00

  Distance table for similar particles (A-A):
    source/target: ion0
    Using structure-of-arrays (SoA) data layout
    Distance computations use general periodic cell in 3D with corner image checks.


  Hamiltonian h0
  Kinetic         Kinetic energy
  LocalECP        CoulombPBCAB potential source: ion0
  NonLocalECP     NonLocalECPotential: ion0
  ElecElec        CoulombPBCAA potential: e_e
  IonIon          CoulombPBCAA potential: ion0_ion0

Loop execution max-interations = 3

=========================================================
  Start QMCFixedSampleLinearOptimize
  File Root opt_emin_legacy.s000 append = no 
=========================================================
  Skip QMCDriver::putQMCInfo 
  Resetting Properties of the walkers 1 x 14
  Adding 4 walkers to 0 existing sets
  Total number of walkers: 1.2331878520e-320
  Total weight: 4.6706791284e-310

=========================================================
  Start VMC
  File Root opt_emin_legacy.s000 append = no 
=========================================================
Resetting walkers
  Using the current 4 walkers.
  Total number of walkers: 1.2331878520e-320
  Total weight: 4.6706791284e-310
  Resetting Properties of the walkers 1 x 14

<vmc function="put">
  qmc_counter=0  my_counter=0
  time step      = 3.0000000000e-01
  blocks         = 100
  steps          = 43
  substeps       = 10
  current        = 0
  target samples = 5.1200000000e+04
  walkers/mpi    = 4

  stepsbetweensamples = 1
<parameter name="blocks">100</parameter>
<parameter name="blocks_between_recompute">10</parameter>
<parameter name="check_properties">100</parameter>
<parameter name="checkproperties">100</parameter>
<parameter name="current">0</parameter>
<parameter name="dmcwalkersperthread">4.2670000000e+03</parameter>
<parameter name="max_seconds">360000</parameter>
<parameter name="maxcpusecs">360000</parameter>
<parameter name="record_configs">0</parameter>
<parameter name="record_walkers">1</parameter>
<parameter name="recordconfigs">0</parameter>
<parameter name="recordwalkers">1</parameter>
<parameter name="samples">5.1200000000e+04</parameter>
<parameter name="samplesperthread">4.2670000000e+03</parameter>
<parameter name="spinmass">1.0000000000e+00</parameter>
<parameter name="steps">43</parameter>
<parameter name="stepsbetweensamples">1</parameter>
<parameter name="sub_steps">10</parameter>
<parameter name="substeps">10</parameter>
<parameter name="tau">3.0000000000e-01</parameter>
<parameter name="time_step">3.0000000000e-01</parameter>
<parameter name="timestep">3.0000000000e-01</parameter>
<parameter name="use_drift">no</parameter>
<parameter name="usedrift">no</parameter>
<parameter name="walkers">4</parameter>
<parameter name="warmup_steps">300</parameter>
<parameter name="warmupsteps">300</parameter>
  DumpConfig==false Nothing (configurations, state) will be saved.
  Walker Samples are dumped every 1 steps.
</vmc>
  Set drift_modifier UNR parameter a = 1.0000000000e+00
  Adding a default LocalEnergyEstimator for the MainEstimator 
 Using QMCCostFunction::QMCCostFunction
WARNING Input tag "nonlocalpp" has been deprecated and will be deleted in the next release!
WARNING Input tag "use_nonlocalpp_deriv" has been deprecated and will be deleted in the next release!
WARNING 'nonlocalpp' no more affects any part of the execution. Please remove it from your input file.
WARNING 'use_nonlocalpp_deriv' no more affects any part of the execution. Please remove it from your input file.
 TrialWaveFunction "psi0" has 3 optimizable objects:
   'eC' optimized
   'uu' optimized
   'ud' optimized
 Variational subset selects 15 parameters.
 In total 15 parameters being optimized after applying constraints.
 Using Default Cost Function: Cost = <|E-E_ff|^2>
  Set drift_modifier UNR parameter a = 1.0000000000e+00
  Adding a default LocalEnergyEstimator for the MainEstimator 
<optimization-report>
<vmc stage="main" blocks="100">
  CloneManager::makeClones makes 4 clones for W/Psi/H.
  Cloning methods for both Psi and H are used
=========================================================
--- Memory usage report : Memory Usage before cloning ---
=========================================================
Available memory on node 0, free + buffers :   55208 MiB
Memory footprint by rank 0 on node 0       :      53 MiB
=========================================================
========================================================
--- Memory usage report : Memory Usage after cloning ---
========================================================
Available memory on node 0, free + buffers :   55208 MiB
Memory footprint by rank 0 on node 0       :      53 MiB
========================================================
  Initial partition of walkers 0 1 2 3 4 

  Using Particle by Particle moves
  Walker moves without drift
  Total Sample Size   =51204
  Walker distribution on root = 0 1 2 3 4 
  Using Locality Approximation
========================================================================
--- Memory usage report : Memory Usage after the buffer registration ---
========================================================================
Available memory on node 0, free + buffers :   55206 MiB
Memory footprint by rank 0 on node 0       :      53 MiB
========================================================================
  Anonymous Buffer size per walker : 18896 Bytes.
MEMORY increase 0 MB VMC::resetRun
====================================================
  SimpleFixedNodeBranch::finalize after a VMC block
    QMC counter        = 0
    time step          = 0.3
    reference energy   = -10.2588
    reference variance = 1.79332
====================================================
  Execution time = 3.1599e+00
</vmc>
<opt stage="setup">
  <log>
   Reading configurations from h5FileRoot opt_emin_legacy.s000
  QMCCostFunction is created with 4 threads.
 Found 2 wavefunction dependent components in the Hamiltonian 'Kinetic' 'NonLocalECP'.
   Number of samples loaded to each thread : 4267 4267 4267 4267 
  VMC Eavg = -1.0259e+01
  VMC Evar = 1.7923e+00
  Total weights = 5.1204e+04
  Execution time = 1.3479e+00
  </log>
</opt>
<opt stage="main" walkers="51204">
  <log>

*****************************************
Building overlap and Hamiltonian matrices
*****************************************

Among totally 15 optimized parameters, largest LM parameter change : 3.4811e-01 at parameter 10
Effective weight of all the samples measured by correlated sampling is 9.2138e-01

******************************************************************************
Init Cost =  -9.0543e+00    New Cost =  -9.3911e+00  Delta Cost =  -3.3680e-01
******************************************************************************

The new set of parameters is valid. Updating the trial wave function!

*****************************************************************************
Applying the update for shift_i =   1.0000e-02     and shift_s =   2.5000e-01
*****************************************************************************
  Execution time = 5.4828e-01
  </log>
  <optVariables href="opt_emin_legacy.s000.opt.xml">
eC_0                -1.750133e-01 1 1  ON 0
eC_1                -1.354589e-01 1 1  ON 1
eC_2                -1.127210e-01 1 1  ON 2
eC_3                -7.694825e-02 1 1  ON 3
eC_4                -4.030260e-02 1 1  ON 4
uu_0                 1.717642e-01 1 1  ON 5
uu_1                 1.449449e-01 1 1  ON 6
uu_2                 8.920062e-02 1 1  ON 7
uu_3                 4.803815e-02 1 1  ON 8
uu_4                 2.221248e-02 1 1  ON 9
ud_0                 3.481080e-01 1 1  ON 10
ud_1                 2.279005e-01 1 1  ON 11
ud_2                 1.337982e-01 1 1  ON 12
ud_3                 6.772287e-02 1 1  ON 13
ud_4                 2.961025e-02 1 1  ON 14
  </optVariables>
   Restore the number of walkers to 4, removing 0 walkers.
</opt>
</optimization-report>
  QMC Execution time = 5.057 secs
BRANCH resetRun
  Continue with the same input as the previous block.
 SimpleFixedNodeBranch::resetRun detected changes in <parameter>'s 
 BranchMode : 0000001100 0000001100
 iParam (old):                300                 1                 0                 0                 0                 0                 1                 0
 iParam (new):                300                 1                 0                 0                 0                 0                 1                 0
 vParam (old):                0.3               0.1                 1                 1                 1                 1                 1                 1                 1                 0                 0                 1                10                 1                 1                 1                 1
 vParam (new):                0.3               0.1                 1                 1                 1                 1                 1                 1                 1                 0                 0                 1                10                 1                 1                 1                 1

=========================================================
  Start QMCFixedSampleLinearOptimize
  File Root opt_emin_legacy.s001 append = no 
=========================================================
  Skip QMCDriver::putQMCInfo 
  Resetting Properties of the walkers 1 x 14

=========================================================
  Start VMC
  File Root opt_emin_legacy.s001 append = no 
=========================================================
Using existing walkers 
  Resetting Properties of the walkers 1 x 14

<vmc function="put">
  qmc_counter=1  my_counter=0
  time step      = 0.3
  blocks         = 100
  steps          = 43
  substeps       = 10
  current        = 0
  target samples = 51200
  walkers/mpi    = 4

  stepsbetweensamples = 1
<parameter name="blocks">100</parameter>
<parameter name="blocks_between_recompute">10</parameter>
<parameter name="check_properties">100</parameter>
<parameter name="checkproperties">100</parameter>
<parameter name="current">0</parameter>
<parameter name="dmcwalkersperthread">4267</parameter>
<parameter name="max_seconds">360000</parameter>
<parameter name="maxcpusecs">360000</parameter>
<parameter name="record_configs">0</parameter>
<parameter name="record_walkers">1</parameter>
<parameter name="recordconfigs">0</parameter>
<parameter name="recordwalkers">1</parameter>
<parameter name="samples">51200</parameter>
<parameter name="samplesperthread">4267</parameter>
<parameter name="spinmass">1</parameter>
<parameter name="steps">43</parameter>
<parameter name="stepsbetweensamples">1</parameter>
<parameter name="sub_steps">10</parameter>
<parameter name="substeps">10</parameter>
<parameter name="tau">0.3</parameter>
<parameter name="time_step">0.3</parameter>
<parameter name="timestep">0.3</parameter>
<parameter name="use_drift">no</parameter>
<parameter name="usedrift">no</parameter>
<parameter name="walkers">4</parameter>
<parameter name="warmup_steps">300</parameter>
<parameter name="warmupsteps">300</parameter>
  DumpConfig==false Nothing (configurations, state) will be saved.
  Walker Samples are dumped every 1 steps.
</vmc>
    Restarting, cummulative properties:
      energy     = -10.25878869
      variance   = 0
      r2accepted = 1e-10
      r2proposed = 1e-10
  Set drift_modifier UNR parameter a = 1
  Adding a default LocalEnergyEstimator for the MainEstimator 
 Using QMCCostFunction::QMCCostFunction
WARNING Input tag "nonlocalpp" has been deprecated and will be deleted in the next release!
WARNING Input tag "use_nonlocalpp_deriv" has been deprecated and will be deleted in the next release!
WARNING 'nonlocalpp' no more affects any part of the execution. Please remove it from your input file.
WARNING 'use_nonlocalpp_deriv' no more affects any part of the execution. Please remove it from your input file.
 TrialWaveFunction "psi0" has 3 optimizable objects:
   'eC' optimized
   'uu' optimized
   'ud' optimized
 Variational subset selects 15 parameters.
 In total 15 parameters being optimized after applying constraints.
 Using Default Cost Function: Cost = <|E-E_ff|^2>
  Set drift_modifier UNR parameter a = 1.0000000000e+00
<optimization-report>
<vmc stage="main" blocks="100">
  Cannot make clones again. Use existing 4 clones
  Initial partition of walkers 0 1 2 3 4 

  Using Particle by Particle moves
  Walker moves without drift
  Total Sample Size   =51204
  Walker distribution on root = 0 1 2 3 4 
  Using Locality Approximation
========================================================================
--- Memory usage report : Memory Usage after the buffer registration ---
========================================================================
Available memory on node 0, free + buffers :   55151 MiB
Memory footprint by rank 0 on node 0       :      75 MiB
========================================================================
  Anonymous Buffer size per walker : 18896 Bytes.
MEMORY increase 0 MB VMC::resetRun
====================================================
  SimpleFixedNodeBranch::finalize after a VMC block
    QMC counter        = 1
    time step          = 0.3
    reference energy   = -10.4789
    reference variance = 0.381274
====================================================
  Execution time = 3.1489e+00
</vmc>
<opt stage="setup">
  <log>
   Reading configurations from h5FileRoot opt_emin_legacy.s001
  QMCCostFunction is created with 4 threads.
 Found 2 wavefunction dependent components in the Hamiltonian 'Kinetic' 'NonLocalECP'.
   Number of samples loaded to each thread : 4267 4267 4267 4267 
  VMC Eavg = -1.0478e+01
  VMC Evar = 3.8093e-01
  Total weights = 5.1204e+04
  Execution time = 1.3998e+00
  </log>
</opt>
<opt stage="main" walkers="51204">
  <log>

*****************************************
Building overlap and Hamiltonian matrices
*****************************************

Among totally 15 optimized parameters, largest LM parameter change : 1.1385e-01 at parameter 10
Effective weight of all the samples measured by correlated sampling is 9.9079e-01

******************************************************************************
Init Cost =  -9.3926e+00    New Cost =  -9.3995e+00  Delta Cost =  -6.9397e-03
******************************************************************************

The new set of parameters is valid. Updating the trial wave function!

*****************************************************************************
Applying the update for shift_i =   1.0000e-02     and shift_s =   6.2500e-02
*****************************************************************************
  Execution time = 5.3210e-01
  </log>
  <optVariables href="opt_emin_legacy.s001.opt.xml">
eC_0                -2.278313e-01 1 1  ON 0
eC_1                -1.766441e-01 1 1  ON 1
eC_2                -1.473276e-01 1 1  ON 2
eC_3                -9.978954e-02 1 1  ON 3
eC_4                -5.190095e-02 1 1  ON 4
uu_0                 2.426561e-01 1 1  ON 5
uu_1                 1.891681e-01 1 1  ON 6
uu_2                 1.221240e-01 1 1  ON 7
uu_3                 6.575168e-02 1 1  ON 8
uu_4                 3.076776e-02 1 1  ON 9
ud_0                 4.619574e-01 1 1  ON 10
ud_1                 3.002011e-01 1 1  ON 11
ud_2                 1.823863e-01 1 1  ON 12
ud_3                 9.482105e-02 1 1  ON 13
ud_4                 4.223049e-02 1 1  ON 14
  </optVariables>
   Restore the number of walkers to 4, removing 0 walkers.
</opt>
</optimization-report>
  QMC Execution time = 5.082 secs
BRANCH resetRun
  Continue with the same input as the previous block.
 SimpleFixedNodeBranch::resetRun detected changes in <parameter>'s 
 BranchMode : 0000001100 0000001100
 iParam (old):                300                 1                 1                 0                 0                 0                 1                 0
 iParam (new):                300                 1                 1                 0                 0                 0                 1                 0
 vParam (old):                0.3               0.1                 1                 1                 1                 1                 1                 1                 1                 0                 0                 1                10                 1                 1                 1                 1
 vParam (new):                0.3               0.1                 1                 1                 1                 1                 1                 1                 1                 0                 0                 1                10                 1                 1                 1                 1

=========================================================
  Start QMCFixedSampleLinearOptimize
  File Root opt_emin_legacy.s002 append = no 
=========================================================
  Skip QMCDriver::putQMCInfo 
  Resetting Properties of the walkers 1 x 14

=========================================================
  Start VMC
  File Root opt_emin_legacy.s002 append = no 
=========================================================
Using existing walkers 
  Resetting Properties of the walkers 1 x 14

<vmc function="put">
  qmc_counter=2  my_counter=0
  time step      = 0.3
  blocks         = 100
  steps          = 43
  substeps       = 10
  current        = 0
  target samples = 51200
  walkers/mpi    = 4

  stepsbetweensamples = 1
<parameter name="blocks">100</parameter>
<parameter name="blocks_between_recompute">10</parameter>
<parameter name="check_properties">100</parameter>
<parameter name="checkproperties">100</parameter>
<parameter name="current">0</parameter>
<parameter name="dmcwalkersperthread">4267</parameter>
<parameter name="max_seconds">360000</parameter>
<parameter name="maxcpusecs">360000</parameter>
<parameter name="record_configs">0</parameter>
<parameter name="record_walkers">1</parameter>
<parameter name="recordconfigs">0</parameter>
<parameter name="recordwalkers">1</parameter>
<parameter name="samples">51200</parameter>
<parameter name="samplesperthread">4267</parameter>
<parameter name="spinmass">1</parameter>
<parameter name="steps">43</parameter>
<parameter name="stepsbetweensamples">1</parameter>
<parameter name="sub_steps">10</parameter>
<parameter name="substeps">10</parameter>
<parameter name="tau">0.3</parameter>
<parameter name="time_step">0.3</parameter>
<parameter name="timestep">0.3</parameter>
<parameter name="use_drift">no</parameter>
<parameter name="usedrift">no</parameter>
<parameter name="walkers">4</parameter>
<parameter name="warmup_steps">300</parameter>
<parameter name="warmupsteps">300</parameter>
  DumpConfig==false Nothing (configurations, state) will be saved.
  Walker Samples are dumped every 1 steps.
</vmc>
    Restarting, cummulative properties:
      energy     = -10.36882581
      variance   = 0
      r2accepted = 1e-10
      r2proposed = 1e-10
  Set drift_modifier UNR parameter a = 1
  Adding a default LocalEnergyEstimator for the MainEstimator 
 Using QMCCostFunction::QMCCostFunction
WARNING Input tag "nonlocalpp" has been deprecated and will be deleted in the next release!
WARNING Input tag "use_nonlocalpp_deriv" has been deprecated and will be deleted in the next release!
WARNING 'nonlocalpp' no more affects any part of the execution. Please remove it from your input file.
WARNING 'use_nonlocalpp_deriv' no more affects any part of the execution. Please remove it from your input file.
 TrialWaveFunction "psi0" has 3 optimizable objects:
   'eC' optimized
   'uu' optimized
   'ud' optimized
 Variational subset selects 15 parameters.
 In total 15 parameters being optimized after applying constraints.
 Using Default Cost Function: Cost = <|E-E_ff|^2>
  Set drift_modifier UNR parameter a = 1.0000000000e+00
<optimization-report>
<vmc stage="main" blocks="100">
  Cannot make clones again. Use existing 4 clones
  Initial partition of walkers 0 1 2 3 4 

  Using Particle by Particle moves
  Walker moves without drift
  Total Sample Size   =51204
  Walker distribution on root = 0 1 2 3 4 
  Using Locality Approximation
========================================================================
--- Memory usage report : Memory Usage after the buffer registration ---
========================================================================
Available memory on node 0, free + buffers :   55127 MiB
Memory footprint by rank 0 on node 0       :      79 MiB
========================================================================
  Anonymous Buffer size per walker : 18896 Bytes.
MEMORY increase 0 MB VMC::resetRun
====================================================
  SimpleFixedNodeBranch::finalize after a VMC block
    QMC counter        = 2
    time step          = 0.3
    reference energy   = -10.4968
    reference variance = 0.432207
====================================================
  Execution time = 3.2299e+00
</vmc>
<opt stage="setup">
  <log>
   Reading configurations from h5FileRoot opt_emin_legacy.s002
  QMCCostFunction is created with 4 threads.
 Found 2 wavefunction dependent components in the Hamiltonian 'Kinetic' 'NonLocalECP'.
   Number of samples loaded to each thread : 4267 4267 4267 4267 
  VMC Eavg = -1.0497e+01
  VMC Evar = 4.3196e-01
  Total weights = 5.1204e+04
  Execution time = 1.4387e+00
  </log>
</opt>
<opt stage="main" walkers="51204">
  <log>

*****************************************
Building overlap and Hamiltonian matrices
*****************************************

Among totally 15 optimized parameters, largest LM parameter change : 2.6302e-02 at parameter 5
Effective weight of all the samples measured by correlated sampling is 9.9992e-01

******************************************************************************
Init Cost =  -9.4038e+00    New Cost =  -9.4033e+00  Delta Cost =   4.4779e-04
******************************************************************************

The new set of parameters is valid. Updating the trial wave function!

*****************************************************************************
Applying the update for shift_i =   1.0000e-02     and shift_s =   1.5625e-02
*****************************************************************************
  Execution time = 5.5108e-01
  </log>
  <optVariables href="opt_emin_legacy.s002.opt.xml">
eC_0                -2.365488e-01 1 1  ON 0
eC_1                -1.819824e-01 1 1  ON 1
eC_2                -1.531893e-01 1 1  ON 2
eC_3                -1.048424e-01 1 1  ON 3
eC_4                -5.454032e-02 1 1  ON 4
uu_0                 2.689581e-01 1 1  ON 5
uu_1                 1.910701e-01 1 1  ON 6
uu_2                 1.214809e-01 1 1  ON 7
uu_3                 6.511610e-02 1 1  ON 8
uu_4                 3.051926e-02 1 1  ON 9
ud_0                 4.736312e-01 1 1  ON 10
ud_1                 3.046531e-01 1 1  ON 11
ud_2                 1.848858e-01 1 1  ON 12
ud_3                 9.576996e-02 1 1  ON 13
ud_4                 4.255149e-02 1 1  ON 14
  </optVariables>
   Restore the number of walkers to 4, removing 0 walkers.
</opt>
</optimization-report>
  QMC Execution time = 5.22 secs
Loop execution max-interations = 6
BRANCH resetRun
  Continue with the same input as the previous block.
 SimpleFixedNodeBranch::resetRun detected changes in <parameter>'s 
 BranchMode : 0000001100 0000001100
 iParam (old):                300                 1                 2                 0                 0                 0                 1                 0
 iParam (new):                300                 1                 2                 0                 0                 0                 1                 0
 vParam (old):                0.3               0.1                 1                 1                 1                 1                 1                 1                 1                 0                 0                 1                10                 1                 1                 1                 1
 vParam (new):                0.3               0.1                 1                 1                 1                 1                 1                 1                 1                 0                 0                 1                10                 1                 1                 1                 1

=========================================================
  Start QMCFixedSampleLinearOptimize
  File Root opt_emin_legacy.s003 append = no 
=========================================================
  Skip QMCDriver::putQMCInfo 
  Resetting Properties of the walkers 1 x 14

=========================================================
  Start VMC
  File Root opt_emin_legacy.s003 append = no 
=========================================================
Resetting walkers
  Using the current 4 walkers.
  Total number of walkers: 1.233187852e-320
  Total weight: 4.670679128e-310
  Resetting Properties of the walkers 1 x 14

<vmc function="put">
  qmc_counter=0  my_counter=0
  time step      = 0.3
  blocks         = 100
  steps          = 43
  substeps       = 10
  current        = 0
  target samples = 51200
  walkers/mpi    = 4

  stepsbetweensamples = 1
<parameter name="blocks">100</parameter>
<parameter name="blocks_between_recompute">10</parameter>
<parameter name="check_properties">100</parameter>
<parameter name="checkproperties">100</parameter>
<parameter name="current">0</parameter>
<parameter name="dmcwalkersperthread">4267</parameter>
<parameter name="max_seconds">360000</parameter>
<parameter name="maxcpusecs">360000</parameter>
<parameter name="record_configs">0</parameter>
<parameter name="record_walkers">1</parameter>
<parameter name="recordconfigs">0</parameter>
<parameter name="recordwalkers">1</parameter>
<parameter name="samples">51200</parameter>
<parameter name="samplesperthread">4267</parameter>
<parameter name="spinmass">1</parameter>
<parameter name="steps">43</parameter>
<parameter name="stepsbetweensamples">1</parameter>
<parameter name="sub_steps">10</parameter>
<parameter name="substeps">10</parameter>
<parameter name="tau">0.3</parameter>
<parameter name="time_step">0.3</parameter>
<parameter name="timestep">0.3</parameter>
<parameter name="use_drift">no</parameter>
<parameter name="usedrift">no</parameter>
<parameter name="walkers">4</parameter>
<parameter name="warmup_steps">300</parameter>
<parameter name="warmupsteps">300</parameter>
  DumpConfig==false Nothing (configurations, state) will be saved.
  Walker Samples are dumped every 1 steps.
</vmc>
  Set drift_modifier UNR parameter a = 1
  Adding a default LocalEnergyEstimator for the MainEstimator 
 Using QMCCostFunction::QMCCostFunction
WARNING Input tag "nonlocalpp" has been deprecated and will be deleted in the next release!
WARNING Input tag "use_nonlocalpp_deriv" has been deprecated and will be deleted in the next release!
WARNING 'nonlocalpp' no more affects any part of the execution. Please remove it from your input file.
WARNING 'use_nonlocalpp_deriv' no more affects any part of the execution. Please remove it from your input file.
 TrialWaveFunction "psi0" has 3 optimizable objects:
   'eC' optimized
   'uu' optimized
   'ud' optimized
 Variational subset selects 15 parameters.
 In total 15 parameters being optimized after applying constraints.
 Using Default Cost Function: Cost = <|E-E_ff|^2>
  Set drift_modifier UNR parameter a = 1.0000000000e+00
<optimization-report>
<vmc stage="main" blocks="100">
  Cannot make clones again. Use existing 4 clones
  Initial partition of walkers 0 1 2 3 4 

  Using Particle by Particle moves
  Walker moves without drift
  Total Sample Size   =51204
  Walker distribution on root = 0 1 2 3 4 
  Using Locality Approximation
========================================================================
--- Memory usage report : Memory Usage after the buffer registration ---
========================================================================
Available memory on node 0, free + buffers :   55131 MiB
Memory footprint by rank 0 on node 0       :      79 MiB
========================================================================
  Anonymous Buffer size per walker : 18896 Bytes.
MEMORY increase 0 MB VMC::resetRun
====================================================
  SimpleFixedNodeBranch::finalize after a VMC block
    QMC counter        = 0
    time step          = 0.3
    reference energy   = -10.4871
    reference variance = 0.429549
====================================================
  Execution time = 3.2180e+00
</vmc>
<opt stage="setup">
  <log>
   Reading configurations from h5FileRoot opt_emin_legacy.s003
  QMCCostFunction is created with 4 threads.
 Found 2 wavefunction dependent components in the Hamiltonian 'Kinetic' 'NonLocalECP'.
   Number of samples loaded to each thread : 4267 4267 4267 4267 
  VMC Eavg = -1.0487e+01
  VMC Evar = 4.2931e-01
  Total weights = 5.1204e+04
  Execution time = 1.5707e+00
  </log>
</opt>
<opt stage="main" walkers="51204">
  <log>

*****************************************
Building overlap and Hamiltonian matrices
*****************************************

Among totally 15 optimized parameters, largest LM parameter change : 5.8328e+01 at parameter 5
Effective weight of all the samples measured by correlated sampling is 1.9531e-05
WARNING     Smaller than the user specified threshold "minwalkers" = 5.0000e-01
  If this message appears frequently. You might have to be cautious. 
  Find info about parameter "minwalkers" in the user manual!

******************************************************************************
Init Cost =  -9.3953e+00    New Cost =   5.5361e+11  Delta Cost =   5.5361e+11
******************************************************************************

The new set of parameters is not valid. Revert to the old set!

*****************************************************************************
Applying the update for shift_i =   1.0000e-02     and shift_s =   4.0000e+00
*****************************************************************************
  Execution time = 5.4382e-01
  </log>
  <optVariables href="opt_emin_legacy.s003.opt.xml">
eC_0                -2.365488e-01 1 1  ON 0
eC_1                -1.819824e-01 1 1  ON 1
eC_2                -1.531893e-01 1 1  ON 2
eC_3                -1.048424e-01 1 1  ON 3
eC_4                -5.454032e-02 1 1  ON 4
uu_0                 2.689581e-01 1 1  ON 5
uu_1                 1.910701e-01 1 1  ON 6
uu_2                 1.214809e-01 1 1  ON 7
uu_3                 6.511610e-02 1 1  ON 8
uu_4                 3.051926e-02 1 1  ON 9
ud_0                 4.736312e-01 1 1  ON 10
ud_1                 3.046531e-01 1 1  ON 11
ud_2                 1.848858e-01 1 1  ON 12
ud_3                 9.576996e-02 1 1  ON 13
ud_4                 4.255149e-02 1 1  ON 14
  </optVariables>
   Restore the number of walkers to 4, removing 0 walkers.
</opt>
</optimization-report>
  QMC Execution time = 5.333 secs
BRANCH resetRun
  Continue with the same input as the previous block.
 SimpleFixedNodeBranch::resetRun detected changes in <parameter>'s 
 BranchMode : 0000001100 0000001100
 iParam (old):                300                 1                 3                 0                 0                 0                 1                 0
 iParam (new):                300                 1                 3                 0                 0                 0                 1                 0
 vParam (old):                0.3               0.1                 1                 1                 1                 1                 1                 1                 1                 0                 0                 1                10                 1                 1                 1                 1
 vParam (new):                0.3               0.1                 1                 1                 1                 1                 1                 1                 1                 0                 0                 1                10                 1                 1                 1                 1

=========================================================
  Start QMCFixedSampleLinearOptimize
  File Root opt_emin_legacy.s004 append = no 
=========================================================
  Skip QMCDriver::putQMCInfo 
  Resetting Properties of the walkers 1 x 14

=========================================================
  Start VMC
  File Root opt_emin_legacy.s004 append = no 
=========================================================
Using existing walkers 
  Resetting Properties of the walkers 1 x 14

<vmc function="put">
  qmc_counter=1  my_counter=0
  time step      = 0.3
  blocks         = 100
  steps          = 43
  substeps       = 10
  current        = 0
  target samples = 51200
  walkers/mpi    = 4

  stepsbetweensamples = 1
<parameter name="blocks">100</parameter>
<parameter name="blocks_between_recompute">10</parameter>
<parameter name="check_properties">100</parameter>
<parameter name="checkproperties">100</parameter>
<parameter name="current">0</parameter>
<parameter name="dmcwalkersperthread">4267</parameter>
<parameter name="max_seconds">360000</parameter>
<parameter name="maxcpusecs">360000</parameter>
<parameter name="record_configs">0</parameter>
<parameter name="record_walkers">1</parameter>
<parameter name="recordconfigs">0</parameter>
<parameter name="recordwalkers">1</parameter>
<parameter name="samples">51200</parameter>
<parameter name="samplesperthread">4267</parameter>
<parameter name="spinmass">1</parameter>
<parameter name="steps">43</parameter>
<parameter name="stepsbetweensamples">1</parameter>
<parameter name="sub_steps">10</parameter>
<parameter name="substeps">10</parameter>
<parameter name="tau">0.3</parameter>
<parameter name="time_step">0.3</parameter>
<parameter name="timestep">0.3</parameter>
<parameter name="use_drift">no</parameter>
<parameter name="usedrift">no</parameter>
<parameter name="walkers">4</parameter>
<parameter name="warmup_steps">300</parameter>
<parameter name="warmupsteps">300</parameter>
  DumpConfig==false Nothing (configurations, state) will be saved.
  Walker Samples are dumped every 1 steps.
</vmc>
    Restarting, cummulative properties:
      energy     = -10.48710845
      variance   = 0
      r2accepted = 1e-10
      r2proposed = 1e-10
  Set drift_modifier UNR parameter a = 1
  Adding a default LocalEnergyEstimator for the MainEstimator 
 Using QMCCostFunction::QMCCostFunction
WARNING Input tag "nonlocalpp" has been deprecated and will be deleted in the next release!
WARNING Input tag "use_nonlocalpp_deriv" has been deprecated and will be deleted in the next release!
WARNING 'nonlocalpp' no more affects any part of the execution. Please remove it from your input file.
WARNING 'use_nonlocalpp_deriv' no more affects any part of the execution. Please remove it from your input file.
 TrialWaveFunction "psi0" has 3 optimizable objects:
   'eC' optimized
   'uu' optimized
   'ud' optimized
 Variational subset selects 15 parameters.
 In total 15 parameters being optimized after applying constraints.
 Using Default Cost Function: Cost = <|E-E_ff|^2>
  Set drift_modifier UNR parameter a = 1.0000000000e+00
<optimization-report>
<vmc stage="main" blocks="100">
  Cannot make clones again. Use existing 4 clones
  Initial partition of walkers 0 1 2 3 4 

  Using Particle by Particle moves
  Walker moves without drift
  Total Sample Size   =51204
  Walker distribution on root = 0 1 2 3 4 
  Using Locality Approximation
========================================================================
--- Memory usage report : Memory Usage after the buffer registration ---
========================================================================
Available memory on node 0, free + buffers :   55140 MiB
Memory footprint by rank 0 on node 0       :      79 MiB
========================================================================
  Anonymous Buffer size per walker : 18896 Bytes.
MEMORY increase 0 MB VMC::resetRun
====================================================
  SimpleFixedNodeBranch::finalize after a VMC block
    QMC counter        = 1
    time step          = 0.3
    reference energy   = -10.4992
    reference variance = 0.457331
====================================================
  Execution time = 3.2412e+00
</vmc>
<opt stage="setup">
  <log>
   Reading configurations from h5FileRoot opt_emin_legacy.s004
  QMCCostFunction is created with 4 threads.
 Found 2 wavefunction dependent components in the Hamiltonian 'Kinetic' 'NonLocalECP'.
   Number of samples loaded to each thread : 4267 4267 4267 4267 
  VMC Eavg = -1.0499e+01
  VMC Evar = 4.5780e-01
  Total weights = 5.1204e+04
  Execution time = 1.5688e+00
  </log>
</opt>
<opt stage="main" walkers="51204">
  <log>

*****************************************
Building overlap and Hamiltonian matrices
*****************************************

Among totally 15 optimized parameters, largest LM parameter change : 1.4784e-02 at parameter 5
Effective weight of all the samples measured by correlated sampling is 1.0000e+00

******************************************************************************
Init Cost =  -9.4037e+00    New Cost =  -9.4037e+00  Delta Cost =   5.7807e-08
******************************************************************************

The new set of parameters is valid. Updating the trial wave function!

*****************************************************************************
Applying the update for shift_i =   1.0000e-02     and shift_s =   1.0000e+00
*****************************************************************************
  Execution time = 5.9138e-01
  </log>
  <optVariables href="opt_emin_legacy.s004.opt.xml">
eC_0                -2.366002e-01 1 1  ON 0
eC_1                -1.818964e-01 1 1  ON 1
eC_2                -1.528772e-01 1 1  ON 2
eC_3                -1.045425e-01 1 1  ON 3
eC_4                -5.439964e-02 1 1  ON 4
uu_0                 2.837421e-01 1 1  ON 5
uu_1                 1.917237e-01 1 1  ON 6
uu_2                 1.224817e-01 1 1  ON 7
uu_3                 6.572883e-02 1 1  ON 8
uu_4                 3.061837e-02 1 1  ON 9
ud_0                 4.739705e-01 1 1  ON 10
ud_1                 3.042573e-01 1 1  ON 11
ud_2                 1.848084e-01 1 1  ON 12
ud_3                 9.587238e-02 1 1  ON 13
ud_4                 4.272112e-02 1 1  ON 14
  </optVariables>
   Restore the number of walkers to 4, removing 0 walkers.
</opt>
</optimization-report>
  QMC Execution time = 5.402 secs
BRANCH resetRun
  Continue with the same input as the previous block.
 SimpleFixedNodeBranch::resetRun detected changes in <parameter>'s 
 BranchMode : 0000001100 0000001100
 iParam (old):                300                 1                 4                 0                 0                 0                 1                 0
 iParam (new):                300                 1                 4                 0                 0                 0                 1                 0
 vParam (old):                0.3               0.1                 1                 1                 1                 1                 1                 1                 1                 0                 0                 1                10                 1                 1                 1                 1
 vParam (new):                0.3               0.1                 1                 1                 1                 1                 1                 1                 1                 0                 0                 1                10                 1                 1                 1                 1

=========================================================
  Start QMCFixedSampleLinearOptimize
  File Root opt_emin_legacy.s005 append = no 
=========================================================
  Skip QMCDriver::putQMCInfo 
  Resetting Properties of the walkers 1 x 14

=========================================================
  Start VMC
  File Root opt_emin_legacy.s005 append = no 
=========================================================
Using existing walkers 
  Resetting Properties of the walkers 1 x 14

<vmc function="put">
  qmc_counter=2  my_counter=0
  time step      = 0.3
  blocks         = 100
  steps          = 43
  substeps       = 10
  current        = 0
  target samples = 51200
  walkers/mpi    = 4

  stepsbetweensamples = 1
<parameter name="blocks">100</parameter>
<parameter name="blocks_between_recompute">10</parameter>
<parameter name="check_properties">100</parameter>
<parameter name="checkproperties">100</parameter>
<parameter name="current">0</parameter>
<parameter name="dmcwalkersperthread">4267</parameter>
<parameter name="max_seconds">360000</parameter>
<parameter name="maxcpusecs">360000</parameter>
<parameter name="record_configs">0</parameter>
<parameter name="record_walkers">1</parameter>
<parameter name="recordconfigs">0</parameter>
<parameter name="recordwalkers">1</parameter>
<parameter name="samples">51200</parameter>
<parameter name="samplesperthread">4267</parameter>
<parameter name="spinmass">1</parameter>
<parameter name="steps">43</parameter>
<parameter name="stepsbetweensamples">1</parameter>
<parameter name="sub_steps">10</parameter>
<parameter name="substeps">10</parameter>
<parameter name="tau">0.3</parameter>
<parameter name="time_step">0.3</parameter>
<parameter name="timestep">0.3</parameter>
<parameter name="use_drift">no</parameter>
<parameter name="usedrift">no</parameter>
<parameter name="walkers">4</parameter>
<parameter name="warmup_steps">300</parameter>
<parameter name="warmupsteps">300</parameter>
  DumpConfig==false Nothing (configurations, state) will be saved.
  Walker Samples are dumped every 1 steps.
</vmc>
    Restarting, cummulative properties:
      energy     = -10.49317032
      variance   = 0
      r2accepted = 1e-10
      r2proposed = 1e-10
  Set drift_modifier UNR parameter a = 1
  Adding a default LocalEnergyEstimator for the MainEstimator 
 Using QMCCostFunction::QMCCostFunction
WARNING Input tag "nonlocalpp" has been deprecated and will be deleted in the next release!
WARNING Input tag "use_nonlocalpp_deriv" has been deprecated and will be deleted in the next release!
WARNING 'nonlocalpp' no more affects any part of the execution. Please remove it from your input file.
WARNING 'use_nonlocalpp_deriv' no more affects any part of the execution. Please remove it from your input file.
 TrialWaveFunction "psi0" has 3 optimizable objects:
   'eC' optimized
   'uu' optimized
   'ud' optimized
 Variational subset selects 15 parameters.
 In total 15 parameters being optimized after applying constraints.
 Using Default Cost Function: Cost = <|E-E_ff|^2>
  Set drift_modifier UNR parameter a = 1.0000000000e+00
<optimization-report>
<vmc stage="main" blocks="100">
  Cannot make clones again. Use existing 4 clones
  Initial partition of walkers 0 1 2 3 4 

  Using Particle by Particle moves
  Walker moves without drift
  Total Sample Size   =51204
  Walker distribution on root = 0 1 2 3 4 
  Using Locality Approximation
========================================================================
--- Memory usage report : Memory Usage after the buffer registration ---
========================================================================
Available memory on node 0, free + buffers :   55129 MiB
Memory footprint by rank 0 on node 0       :      79 MiB
========================================================================
  Anonymous Buffer size per walker : 18896 Bytes.
MEMORY increase 0 MB VMC::resetRun
====================================================
  SimpleFixedNodeBranch::finalize after a VMC block
    QMC counter        = 2
    time step          = 0.3
    reference energy   = -10.4874
    reference variance = 0.4398
====================================================
  Execution time = 3.3476e+00
</vmc>
<opt stage="setup">
  <log>
   Reading configurations from h5FileRoot opt_emin_legacy.s005
  QMCCostFunction is created with 4 threads.
 Found 2 wavefunction dependent components in the Hamiltonian 'Kinetic' 'NonLocalECP'.
   Number of samples loaded to each thread : 4267 4267 4267 4267 
  VMC Eavg = -1.0487e+01
  VMC Evar = 4.4018e-01
  Total weights = 5.1204e+04
  Execution time = 1.5640e+00
  </log>
</opt>
<opt stage="main" walkers="51204">
  <log>

*****************************************
Building overlap and Hamiltonian matrices
*****************************************

Among totally 15 optimized parameters, largest LM parameter change : 4.3446e-03 at parameter 0
Effective weight of all the samples measured by correlated sampling is 9.9999e-01

******************************************************************************
Init Cost =  -9.3946e+00    New Cost =  -9.3944e+00  Delta Cost =   2.1276e-04
******************************************************************************

The new set of parameters is valid. Updating the trial wave function!

*****************************************************************************
Applying the update for shift_i =   1.0000e-02     and shift_s =   2.5000e-01
*****************************************************************************
  Execution time = 6.0205e-01
  </log>
  <optVariables href="opt_emin_legacy.s005.opt.xml">
eC_0                -2.322556e-01 1 1  ON 0
eC_1                -1.833087e-01 1 1  ON 1
eC_2                -1.534924e-01 1 1  ON 2
eC_3                -1.046056e-01 1 1  ON 3
eC_4                -5.428253e-02 1 1  ON 4
uu_0                 2.832176e-01 1 1  ON 5
uu_1                 1.924568e-01 1 1  ON 6
uu_2                 1.229637e-01 1 1  ON 7
uu_3                 6.619047e-02 1 1  ON 8
uu_4                 3.102407e-02 1 1  ON 9
ud_0                 4.765812e-01 1 1  ON 10
ud_1                 3.059065e-01 1 1  ON 11
ud_2                 1.868444e-01 1 1  ON 12
ud_3                 9.676205e-02 1 1  ON 13
ud_4                 4.298448e-02 1 1  ON 14
  </optVariables>
   Restore the number of walkers to 4, removing 0 walkers.
</opt>
</optimization-report>
  QMC Execution time = 5.514 secs
BRANCH resetRun
  Continue with the same input as the previous block.
 SimpleFixedNodeBranch::resetRun detected changes in <parameter>'s 
 BranchMode : 0000001100 0000001100
 iParam (old):                300                 1                 5                 0                 0                 0                 1                 0
 iParam (new):                300                 1                 5                 0                 0                 0                 1                 0
 vParam (old):                0.3               0.1                 1                 1                 1                 1                 1                 1                 1                 0                 0                 1                10                 1                 1                 1                 1
 vParam (new):                0.3               0.1                 1                 1                 1                 1                 1                 1                 1                 0                 0                 1                10                 1                 1                 1                 1

=========================================================
  Start QMCFixedSampleLinearOptimize
  File Root opt_emin_legacy.s006 append = no 
=========================================================
  Skip QMCDriver::putQMCInfo 
  Resetting Properties of the walkers 1 x 14

=========================================================
  Start VMC
  File Root opt_emin_legacy.s006 append = no 
=========================================================
Using existing walkers 
  Resetting Properties of the walkers 1 x 14

<vmc function="put">
  qmc_counter=3  my_counter=0
  time step      = 0.3
  blocks         = 100
  steps          = 43
  substeps       = 10
  current        = 0
  target samples = 51200
  walkers/mpi    = 4

  stepsbetweensamples = 1
<parameter name="blocks">100</parameter>
<parameter name="blocks_between_recompute">10</parameter>
<parameter name="check_properties">100</parameter>
<parameter name="checkproperties">100</parameter>
<parameter name="current">0</parameter>
<parameter name="dmcwalkersperthread">4267</parameter>
<parameter name="max_seconds">360000</parameter>
<parameter name="maxcpusecs">360000</parameter>
<parameter name="record_configs">0</parameter>
<parameter name="record_walkers">1</parameter>
<parameter name="recordconfigs">0</parameter>
<parameter name="recordwalkers">1</parameter>
<parameter name="samples">51200</parameter>
<parameter name="samplesperthread">4267</parameter>
<parameter name="spinmass">1</parameter>
<parameter name="steps">43</parameter>
<parameter name="stepsbetweensamples">1</parameter>
<parameter name="sub_steps">10</parameter>
<parameter name="substeps">10</parameter>
<parameter name="tau">0.3</parameter>
<parameter name="time_step">0.3</parameter>
<parameter name="timestep">0.3</parameter>
<parameter name="use_drift">no</parameter>
<parameter name="usedrift">no</parameter>
<parameter name="walkers">4</parameter>
<parameter name="warmup_steps">300</parameter>
<parameter name="warmupsteps">300</parameter>
  DumpConfig==false Nothing (configurations, state) will be saved.
  Walker Samples are dumped every 1 steps.
</vmc>
    Restarting, cummulative properties:
      energy     = -10.49124629
      variance   = 0
      r2accepted = 1e-10
      r2proposed = 1e-10
  Set drift_modifier UNR parameter a = 1
  Adding a default LocalEnergyEstimator for the MainEstimator 
 Using QMCCostFunction::QMCCostFunction
WARNING Input tag "nonlocalpp" has been deprecated and will be deleted in the next release!
WARNING Input tag "use_nonlocalpp_deriv" has been deprecated and will be deleted in the next release!
WARNING 'nonlocalpp' no more affects any part of the execution. Please remove it from your input file.
WARNING 'use_nonlocalpp_deriv' no more affects any part of the execution. Please remove it from your input file.
 TrialWaveFunction "psi0" has 3 optimizable objects:
   'eC' optimized
   'uu' optimized
   'ud' optimized
 Variational subset selects 15 parameters.
 In total 15 parameters being optimized after applying constraints.
 Using Default Cost Function: Cost = <|E-E_ff|^2>
  Set drift_modifier UNR parameter a = 1.0000000000e+00
<optimization-report>
<vmc stage="main" blocks="100">
  Cannot make clones again. Use existing 4 clones
  Initial partition of walkers 0 1 2 3 4 

  Using Particle by Particle moves
  Walker moves without drift
  Total Sample Size   =51204
  Walker distribution on root = 0 1 2 3 4 
  Using Locality Approximation
========================================================================
--- Memory usage report : Memory Usage after the buffer registration ---
========================================================================
Available memory on node 0, free + buffers :   55111 MiB
Memory footprint by rank 0 on node 0       :      79 MiB
========================================================================
  Anonymous Buffer size per walker : 18896 Bytes.
MEMORY increase 0 MB VMC::resetRun
====================================================
  SimpleFixedNodeBranch::finalize after a VMC block
    QMC counter        = 3
    time step          = 0.3
    reference energy   = -10.4876
    reference variance = 0.449698
====================================================
  Execution time = 3.3596e+00
</vmc>
<opt stage="setup">
  <log>
   Reading configurations from h5FileRoot opt_emin_legacy.s006
  QMCCostFunction is created with 4 threads.
 Found 2 wavefunction dependent components in the Hamiltonian 'Kinetic' 'NonLocalECP'.
   Number of samples loaded to each thread : 4267 4267 4267 4267 
  VMC Eavg = -1.0488e+01
  VMC Evar = 4.4964e-01
  Total weights = 5.1204e+04
  Execution time = 1.6113e+00
  </log>
</opt>
<opt stage="main" walkers="51204">
  <log>

*****************************************
Building overlap and Hamiltonian matrices
*****************************************

Among totally 15 optimized parameters, largest LM parameter change : 5.8685e+01 at parameter 5
Effective weight of all the samples measured by correlated sampling is 1.9841e-05
WARNING     Smaller than the user specified threshold "minwalkers" = 5.0000e-01
  If this message appears frequently. You might have to be cautious. 
  Find info about parameter "minwalkers" in the user manual!

******************************************************************************
Init Cost =  -9.3944e+00    New Cost =   1.5230e+30  Delta Cost =   1.5230e+30
******************************************************************************

The new set of parameters is not valid. Revert to the old set!

*****************************************************************************
Applying the update for shift_i =   1.0000e-02     and shift_s =   1.0000e+00
*****************************************************************************
  Execution time = 6.0061e-01
  </log>
  <optVariables href="opt_emin_legacy.s006.opt.xml">
eC_0                -2.322556e-01 1 1  ON 0
eC_1                -1.833087e-01 1 1  ON 1
eC_2                -1.534924e-01 1 1  ON 2
eC_3                -1.046056e-01 1 1  ON 3
eC_4                -5.428253e-02 1 1  ON 4
uu_0                 2.832176e-01 1 1  ON 5
uu_1                 1.924568e-01 1 1  ON 6
uu_2                 1.229637e-01 1 1  ON 7
uu_3                 6.619047e-02 1 1  ON 8
uu_4                 3.102407e-02 1 1  ON 9
ud_0                 4.765812e-01 1 1  ON 10
ud_1                 3.059065e-01 1 1  ON 11
ud_2                 1.868444e-01 1 1  ON 12
ud_3                 9.676205e-02 1 1  ON 13
ud_4                 4.298448e-02 1 1  ON 14
  </optVariables>
   Restore the number of walkers to 4, removing 0 walkers.
</opt>
</optimization-report>
  QMC Execution time = 5.572 secs
BRANCH resetRun
  Continue with the same input as the previous block.
 SimpleFixedNodeBranch::resetRun detected changes in <parameter>'s 
 BranchMode : 0000001100 0000001100
 iParam (old):                300                 1                 6                 0                 0                 0                 1                 0
 iParam (new):                300                 1                 6                 0                 0                 0                 1                 0
 vParam (old):                0.3               0.1                 1                 1                 1                 1                 1                 1                 1                 0                 0                 1                10                 1                 1                 1                 1
 vParam (new):                0.3               0.1                 1                 1                 1                 1                 1                 1                 1                 0                 0                 1                10                 1                 1                 1                 1

=========================================================
  Start QMCFixedSampleLinearOptimize
  File Root opt_emin_legacy.s007 append = no 
=========================================================
  Skip QMCDriver::putQMCInfo 
  Resetting Properties of the walkers 1 x 14

=========================================================
  Start VMC
  File Root opt_emin_legacy.s007 append = no 
=========================================================
Using existing walkers 
  Resetting Properties of the walkers 1 x 14

<vmc function="put">
  qmc_counter=4  my_counter=0
  time step      = 0.3
  blocks         = 100
  steps          = 43
  substeps       = 10
  current        = 0
  target samples = 51200
  walkers/mpi    = 4

  stepsbetweensamples = 1
<parameter name="blocks">100</parameter>
<parameter name="blocks_between_recompute">10</parameter>
<parameter name="check_properties">100</parameter>
<parameter name="checkproperties">100</parameter>
<parameter name="current">0</parameter>
<parameter name="dmcwalkersperthread">4267</parameter>
<parameter name="max_seconds">360000</parameter>
<parameter name="maxcpusecs">360000</parameter>
<parameter name="record_configs">0</parameter>
<parameter name="record_walkers">1</parameter>
<parameter name="recordconfigs">0</parameter>
<parameter name="recordwalkers">1</parameter>
<parameter name="samples">51200</parameter>
<parameter name="samplesperthread">4267</parameter>
<parameter name="spinmass">1</parameter>
<parameter name="steps">43</parameter>
<parameter name="stepsbetweensamples">1</parameter>
<parameter name="sub_steps">10</parameter>
<parameter name="substeps">10</parameter>
<parameter name="tau">0.3</parameter>
<parameter name="time_step">0.3</parameter>
<parameter name="timestep">0.3</parameter>
<parameter name="use_drift">no</parameter>
<parameter name="usedrift">no</parameter>
<parameter name="walkers">4</parameter>
<parameter name="warmup_steps">300</parameter>
<parameter name="warmupsteps">300</parameter>
  DumpConfig==false Nothing (configurations, state) will be saved.
  Walker Samples are dumped every 1 steps.
</vmc>
    Restarting, cummulative properties:
      energy     = -10.49032392
      variance   = 0
      r2accepted = 1e-10
      r2proposed = 1e-10
  Set drift_modifier UNR parameter a = 1
  Adding a default LocalEnergyEstimator for the MainEstimator 
 Using QMCCostFunction::QMCCostFunction
WARNING Input tag "nonlocalpp" has been deprecated and will be deleted in the next release!
WARNING Input tag "use_nonlocalpp_deriv" has been deprecated and will be deleted in the next release!
WARNING 'nonlocalpp' no more affects any part of the execution. Please remove it from your input file.
WARNING 'use_nonlocalpp_deriv' no more affects any part of the execution. Please remove it from your input file.
 TrialWaveFunction "psi0" has 3 optimizable objects:
   'eC' optimized
   'uu' optimized
   'ud' optimized
 Variational subset selects 15 parameters.
 In total 15 parameters being optimized after applying constraints.
 Using Default Cost Function: Cost = <|E-E_ff|^2>
  Set drift_modifier UNR parameter a = 1.0000000000e+00
<optimization-report>
<vmc stage="main" blocks="100">
  Cannot make clones again. Use existing 4 clones
  Initial partition of walkers 0 1 2 3 4 

  Using Particle by Particle moves
  Walker moves without drift
  Total Sample Size   =51204
  Walker distribution on root = 0 1 2 3 4 
  Using Locality Approximation
========================================================================
--- Memory usage report : Memory Usage after the buffer registration ---
========================================================================
Available memory on node 0, free + buffers :   55116 MiB
Memory footprint by rank 0 on node 0       :      79 MiB
========================================================================
  Anonymous Buffer size per walker : 18896 Bytes.
MEMORY increase 0 MB VMC::resetRun
====================================================
  SimpleFixedNodeBranch::finalize after a VMC block
    QMC counter        = 4
    time step          = 0.3
    reference energy   = -10.4896
    reference variance = 0.527648
====================================================
  Execution time = 3.5211e+00
</vmc>
<opt stage="setup">
  <log>
   Reading configurations from h5FileRoot opt_emin_legacy.s007
  QMCCostFunction is created with 4 threads.
 Found 2 wavefunction dependent components in the Hamiltonian 'Kinetic' 'NonLocalECP'.
   Number of samples loaded to each thread : 4267 4267 4267 4267 
  VMC Eavg = -1.0490e+01
  VMC Evar = 5.2778e-01
  Total weights = 5.1204e+04
  Execution time = 1.7378e+00
  </log>
</opt>
<opt stage="main" walkers="51204">
  <log>

*****************************************
Building overlap and Hamiltonian matrices
*****************************************

Among totally 15 optimized parameters, largest LM parameter change : 3.7355e-03 at parameter 1
Effective weight of all the samples measured by correlated sampling is 9.9996e-01

******************************************************************************
Init Cost =  -9.3879e+00    New Cost =  -9.3879e+00  Delta Cost =   5.0612e-06
******************************************************************************

The new set of parameters is valid. Updating the trial wave function!

*****************************************************************************
Applying the update for shift_i =   1.0000e-02     and shift_s =   2.5000e-01
*****************************************************************************
  Execution time = 6.4460e-01
  </log>
  <optVariables href="opt_emin_legacy.s007.opt.xml">
eC_0                -2.314670e-01 1 1  ON 0
eC_1                -1.795732e-01 1 1  ON 1
eC_2                -1.513574e-01 1 1  ON 2
eC_3                -1.034078e-01 1 1  ON 3
eC_4                -5.380150e-02 1 1  ON 4
uu_0                 2.867807e-01 1 1  ON 5
uu_1                 1.946432e-01 1 1  ON 6
uu_2                 1.254843e-01 1 1  ON 7
uu_3                 6.707821e-02 1 1  ON 8
uu_4                 3.181477e-02 1 1  ON 9
ud_0                 4.749817e-01 1 1  ON 10
ud_1                 3.052596e-01 1 1  ON 11
ud_2                 1.856216e-01 1 1  ON 12
ud_3                 9.618083e-02 1 1  ON 13
ud_4                 4.299052e-02 1 1  ON 14
  </optVariables>
   Restore the number of walkers to 4, removing 0 walkers.
</opt>
</optimization-report>
  QMC Execution time = 5.904 secs
BRANCH resetRun
  Continue with the same input as the previous block.
 SimpleFixedNodeBranch::resetRun detected changes in <parameter>'s 
 BranchMode : 0000001100 0000001100
 iParam (old):                300                 1                 7                 0                 0                 0                 1                 0
 iParam (new):                300                 1                 7                 0                 0                 0                 1                 0
 vParam (old):                0.3               0.1                 1                 1                 1                 1                 1                 1                 1                 0                 0                 1                10                 1                 1                 1                 1
 vParam (new):                0.3               0.1                 1                 1                 1                 1                 1                 1                 1                 0                 0                 1                10                 1                 1                 1                 1

=========================================================
  Start QMCFixedSampleLinearOptimize
  File Root opt_emin_legacy.s008 append = no 
=========================================================
  Skip QMCDriver::putQMCInfo 
  Resetting Properties of the walkers 1 x 14

=========================================================
  Start VMC
  File Root opt_emin_legacy.s008 append = no 
=========================================================
Using existing walkers 
  Resetting Properties of the walkers 1 x 14

<vmc function="put">
  qmc_counter=5  my_counter=0
  time step      = 0.3
  blocks         = 100
  steps          = 43
  substeps       = 10
  current        = 0
  target samples = 51200
  walkers/mpi    = 4

  stepsbetweensamples = 1
<parameter name="blocks">100</parameter>
<parameter name="blocks_between_recompute">10</parameter>
<parameter name="check_properties">100</parameter>
<parameter name="checkproperties">100</parameter>
<parameter name="current">0</parameter>
<parameter name="dmcwalkersperthread">4267</parameter>
<parameter name="max_seconds">360000</parameter>
<parameter name="maxcpusecs">360000</parameter>
<parameter name="record_configs">0</parameter>
<parameter name="record_walkers">1</parameter>
<parameter name="recordconfigs">0</parameter>
<parameter name="recordwalkers">1</parameter>
<parameter name="samples">51200</parameter>
<parameter name="samplesperthread">4267</parameter>
<parameter name="spinmass">1</parameter>
<parameter name="steps">43</parameter>
<parameter name="stepsbetweensamples">1</parameter>
<parameter name="sub_steps">10</parameter>
<parameter name="substeps">10</parameter>
<parameter name="tau">0.3</parameter>
<parameter name="time_step">0.3</parameter>
<parameter name="timestep">0.3</parameter>
<parameter name="use_drift">no</parameter>
<parameter name="usedrift">no</parameter>
<parameter name="walkers">4</parameter>
<parameter name="warmup_steps">300</parameter>
<parameter name="warmupsteps">300</parameter>
  DumpConfig==false Nothing (configurations, state) will be saved.
  Walker Samples are dumped every 1 steps.
</vmc>
    Restarting, cummulative properties:
      energy     = -10.49017817
      variance   = 0
      r2accepted = 1e-10
      r2proposed = 1e-10
  Set drift_modifier UNR parameter a = 1
  Adding a default LocalEnergyEstimator for the MainEstimator 
 Using QMCCostFunction::QMCCostFunction
WARNING Input tag "nonlocalpp" has been deprecated and will be deleted in the next release!
WARNING Input tag "use_nonlocalpp_deriv" has been deprecated and will be deleted in the next release!
WARNING 'nonlocalpp' no more affects any part of the execution. Please remove it from your input file.
WARNING 'use_nonlocalpp_deriv' no more affects any part of the execution. Please remove it from your input file.
 TrialWaveFunction "psi0" has 3 optimizable objects:
   'eC' optimized
   'uu' optimized
   'ud' optimized
 Variational subset selects 15 parameters.
 In total 15 parameters being optimized after applying constraints.
 Using Default Cost Function: Cost = <|E-E_ff|^2>
  Set drift_modifier UNR parameter a = 1.0000000000e+00
<optimization-report>
<vmc stage="main" blocks="100">
  Cannot make clones again. Use existing 4 clones
  Initial partition of walkers 0 1 2 3 4 

  Using Particle by Particle moves
  Walker moves without drift
  Total Sample Size   =51204
  Walker distribution on root = 0 1 2 3 4 
  Using Locality Approximation
========================================================================
--- Memory usage report : Memory Usage after the buffer registration ---
========================================================================
Available memory on node 0, free + buffers :   55120 MiB
Memory footprint by rank 0 on node 0       :      79 MiB
========================================================================
  Anonymous Buffer size per walker : 18896 Bytes.
MEMORY increase 0 MB VMC::resetRun
====================================================
  SimpleFixedNodeBranch::finalize after a VMC block
    QMC counter        = 5
    time step          = 0.3
    reference energy   = -10.4925
    reference variance = 0.45382
====================================================
  Execution time = 3.6860e+00
</vmc>
<opt stage="setup">
  <log>
   Reading configurations from h5FileRoot opt_emin_legacy.s008
  QMCCostFunction is created with 4 threads.
 Found 2 wavefunction dependent components in the Hamiltonian 'Kinetic' 'NonLocalECP'.
   Number of samples loaded to each thread : 4267 4267 4267 4267 
  VMC Eavg = -1.0492e+01
  VMC Evar = 4.5413e-01
  Total weights = 5.1204e+04
  Execution time = 1.7458e+00
  </log>
</opt>
<opt stage="main" walkers="51204">
  <log>

*****************************************
Building overlap and Hamiltonian matrices
*****************************************

Among totally 15 optimized parameters, largest LM parameter change : 3.4230e-03 at parameter 5
Effective weight of all the samples measured by correlated sampling is 9.9997e-01

******************************************************************************
Init Cost =  -9.3978e+00    New Cost =  -9.3984e+00  Delta Cost =  -5.6431e-04
******************************************************************************

The new set of parameters is valid. Updating the trial wave function!

*****************************************************************************
Applying the update for shift_i =   1.0000e-02     and shift_s =   6.2500e-02
*****************************************************************************
  Execution time = 6.3255e-01
  </log>
  <optVariables href="opt_emin_legacy.s008.opt.xml">
eC_0                -2.324062e-01 1 1  ON 0
eC_1                -1.807512e-01 1 1  ON 1
eC_2                -1.505899e-01 1 1  ON 2
eC_3                -1.023555e-01 1 1  ON 3
eC_4                -5.329624e-02 1 1  ON 4
uu_0                 2.833577e-01 1 1  ON 5
uu_1                 1.915019e-01 1 1  ON 6
uu_2                 1.235585e-01 1 1  ON 7
uu_3                 6.559496e-02 1 1  ON 8
uu_4                 3.064837e-02 1 1  ON 9
ud_0                 4.752307e-01 1 1  ON 10
ud_1                 3.042478e-01 1 1  ON 11
ud_2                 1.856481e-01 1 1  ON 12
ud_3                 9.614355e-02 1 1  ON 13
ud_4                 4.289037e-02 1 1  ON 14
  </optVariables>
   Restore the number of walkers to 4, removing 0 walkers.
</opt>
</optimization-report>
  QMC Execution time = 6.065 secs
  Total Execution time = 49.23 secs

=========================================================
  A new xml input file : opt_emin_legacy.s008.cont.xml

Use --enable-timers=<value> command line option to increase or decrease level of timing information
Stack timer profile
Timer                           Inclusive_time  Exclusive_time  Calls       Time_per_call
Total                             49.4799     0.0001              1      49.479873433
  QMCFixedSampleLinearOptimize    49.2318     0.0049              2      24.615879094
    VMC                           49.2269    49.2269              9       5.469651692
  Startup                          0.2480     0.2480              1       0.248009087

QMCPACK execution completed successfully
